 Entering Gaussian System, Link 0=g16
 Input=AFWGWVQKWXZTQB-UHFFFAOYSA-N_S0_solv_freq.com
 Output=AFWGWVQKWXZTQB-UHFFFAOYSA-N_S0_solv_freq.log
 Initial command:
 /shared/centos7/gaussian/g16/l1.exe "/scratch/abreha.b/dibenzoperylenes/s0_solv/freq_calcs/Gau-43633.inp" -scrdir="/scratch/abreha.b/dibenzoperylenes/s0_solv/freq_calcs/"
 Entering Link 1 = /shared/centos7/gaussian/g16/l1.exe PID=     43634.
  
 Copyright (c) 1988,1990,1992,1993,1995,1998,2003,2009,2016,
            Gaussian, Inc.  All Rights Reserved.
  
 This is part of the Gaussian(R) 16 program.  It is based on
 the Gaussian(R) 09 system (copyright 2009, Gaussian, Inc.),
 the Gaussian(R) 03 system (copyright 2003, Gaussian, Inc.),
 the Gaussian(R) 98 system (copyright 1998, Gaussian, Inc.),
 the Gaussian(R) 94 system (copyright 1995, Gaussian, Inc.),
 the Gaussian 92(TM) system (copyright 1992, Gaussian, Inc.),
 the Gaussian 90(TM) system (copyright 1990, Gaussian, Inc.),
 the Gaussian 88(TM) system (copyright 1988, Gaussian, Inc.),
 the Gaussian 86(TM) system (copyright 1986, Carnegie Mellon
 University), and the Gaussian 82(TM) system (copyright 1983,
 Carnegie Mellon University). Gaussian is a federally registered
 trademark of Gaussian, Inc.
  
 This software contains proprietary and confidential information,
 including trade secrets, belonging to Gaussian, Inc.
  
 This software is provided under written license and may be
 used, copied, transmitted, or stored only in accord with that
 written license.
  
 The following legend is applicable only to US Government
 contracts under FAR:
  
                    RESTRICTED RIGHTS LEGEND
  
 Use, reproduction and disclosure by the US Government is
 subject to restrictions as set forth in subparagraphs (a)
 and (c) of the Commercial Computer Software - Restricted
 Rights clause in FAR 52.227-19.
  
 Gaussian, Inc.
 340 Quinnipiac St., Bldg. 40, Wallingford CT 06492
  
  
 ---------------------------------------------------------------
 Warning -- This program may not be used in any manner that
 competes with the business of Gaussian, Inc. or will provide
 assistance to any competitor of Gaussian, Inc.  The licensee
 of this program is prohibited from giving any competitor of
 Gaussian, Inc. access to this program.  By using this program,
 the user acknowledges that Gaussian, Inc. is engaged in the
 business of creating and licensing software in the field of
 computational chemistry and represents and warrants to the
 licensee that it is not a competitor of Gaussian, Inc. and that
 it will not use this program in any manner prohibited above.
 ---------------------------------------------------------------
  

 Cite this work as:
 Gaussian 16, Revision A.03,
 M. J. Frisch, G. W. Trucks, H. B. Schlegel, G. E. Scuseria, 
 M. A. Robb, J. R. Cheeseman, G. Scalmani, V. Barone, 
 G. A. Petersson, H. Nakatsuji, X. Li, M. Caricato, A. V. Marenich, 
 J. Bloino, B. G. Janesko, R. Gomperts, B. Mennucci, H. P. Hratchian, 
 J. V. Ortiz, A. F. Izmaylov, J. L. Sonnenberg, D. Williams-Young, 
 F. Ding, F. Lipparini, F. Egidi, J. Goings, B. Peng, A. Petrone, 
 T. Henderson, D. Ranasinghe, V. G. Zakrzewski, J. Gao, N. Rega, 
 G. Zheng, W. Liang, M. Hada, M. Ehara, K. Toyota, R. Fukuda, 
 J. Hasegawa, M. Ishida, T. Nakajima, Y. Honda, O. Kitao, H. Nakai, 
 T. Vreven, K. Throssell, J. A. Montgomery, Jr., J. E. Peralta, 
 F. Ogliaro, M. J. Bearpark, J. J. Heyd, E. N. Brothers, K. N. Kudin, 
 V. N. Staroverov, T. A. Keith, R. Kobayashi, J. Normand, 
 K. Raghavachari, A. P. Rendell, J. C. Burant, S. S. Iyengar, 
 J. Tomasi, M. Cossi, J. M. Millam, M. Klene, C. Adamo, R. Cammi, 
 J. W. Ochterski, R. L. Martin, K. Morokuma, O. Farkas, 
 J. B. Foresman, and D. J. Fox, Gaussian, Inc., Wallingford CT, 2016.
 
 ******************************************
 Gaussian 16:  EM64L-G16RevA.03 25-Dec-2016
                31-Oct-2018 
 ******************************************
 %chk=AFWGWVQKWXZTQB-UHFFFAOYSA-N_S0_solv_freq.chk
 %rwf=AFWGWVQKWXZTQB-UHFFFAOYSA-N_S0_solv_freq.rwf
 %NoSave
 %mem=8GB
 %nproc=16
 Will use up to   16 processors via shared memory.
 -----------------------------------------------------------
 #p M06/6-31+G(d,p) SCRF=(Solvent=Acetonitrile) freq=noraman
 -----------------------------------------------------------
 1/10=4,30=1,38=1/1,3;
 2/12=2,17=6,18=5,40=1/2;
 3/5=1,6=6,7=111,11=2,25=1,30=1,70=2201,71=2,72=2,74=-54,140=1/1,2,3;
 4//1;
 5/5=2,38=5,53=2,98=1/2;
 8/6=4,10=90,11=11/1;
 11/6=1,8=1,9=11,15=111,16=1/1,2,10;
 10/6=1/2;
 6/7=2,8=2,9=2,10=2,28=1/1;
 7/8=1,10=1,25=1/1,2,3,16;
 1/10=4,30=1/3;
 99//99;
 Leave Link    1 at Wed Oct 31 09:58:21 2018, MaxMem=  1073741824 cpu:              22.6 elap:               1.5
 (Enter /shared/centos7/gaussian/g16/l101.exe)
 ----------------------------------------
 AFWGWVQKWXZTQB-UHFFFAOYSA-N_S0_solv_freq
 ----------------------------------------
 Symbolic Z-matrix:
 Charge =  0 Multiplicity = 1
 O                    -8.58953  -3.87696   0.10584 
 N                    -7.43969  -4.27677   0.26146 
 O                    -7.13119  -5.41048   0.59449 
 C                    -6.39121  -3.32806   0.03146 
 C                    -6.55288  -2.03263  -0.34568 
 O                    -5.3186   -1.51645  -0.44421 
 C                    -4.45318  -2.53214  -0.11428 
 C                    -3.03315  -2.20225  -0.10931 
 C                    -2.70003  -0.87496  -0.08522 
 C                    -1.35627  -0.42063  -0.0603 
 C                    -1.0398    0.96779  -0.04174 
 C                    -2.05064   1.9633    0.00888 
 C                    -1.76322   3.29951   0.02055 
 C                    -2.91221   4.19414   0.11778 
 N                    -4.11478   3.98103  -0.32483 
 C                    -4.81552   5.07086   0.10106 
 N                    -6.20997   5.25472  -0.17703 
 O                    -6.79231   4.38936  -0.81162 
 O                    -6.72613   6.28291   0.24924 
 C                    -4.02037   5.93001   0.79133 
 O                    -2.79719   5.37228   0.80691 
 C                    -0.39929   3.76272  -0.05546 
 C                    -0.06646   5.11963  -0.15885 
 C                     1.25805   5.51845  -0.23844 
 C                     2.28255   4.58438  -0.20482 
 C                     2.00106   3.21491  -0.11726 
 C                     3.03316   2.20229  -0.10842 
 C                     4.4532    2.53217  -0.11336 
 N                     5.07067   3.63779   0.17747 
 C                     6.39124   3.32802   0.03254 
 N                     7.43974   4.27666   0.26276 
 O                     8.58957   3.87688   0.107 
 O                     7.13126   5.41029   0.5961 
 C                     6.55288   2.03269  -0.34494 
 O                     5.3186    1.51655  -0.44357 
 C                     2.70003   0.875    -0.08479 
 C                     1.35627   0.42067  -0.05963 
 C                     1.03981  -0.96776  -0.04241 
 C                     2.05063  -1.96328   0.00848 
 C                     1.76322  -3.29948   0.0197 
 C                     2.91217  -4.19416   0.11694 
 N                     4.11485  -3.98093  -0.32533 
 C                     4.81547  -5.0709    0.10041 
 N                     6.20998  -5.2547   -0.1774 
 O                     6.72603  -6.28302   0.24869 
 O                     6.79249  -4.38916  -0.8116 
 C                     4.02015  -5.93024   0.79024 
 O                     2.79697  -5.37251   0.80568 
 C                     0.39929  -3.76268  -0.05659 
 C                     0.06649  -5.11955  -0.1606 
 C                    -1.25801  -5.51834  -0.24051 
 C                    -2.28251  -4.58429  -0.20661 
 C                    -2.00104  -3.21487  -0.11842 
 C                    -0.6399   -2.78357  -0.06829 
 C                    -0.31743  -1.38932  -0.05139 
 C                     0.31743   1.38936  -0.05156 
 C                     0.63992   2.78362  -0.06712 
 N                    -5.07063  -3.63784   0.17627 
 H                    -7.39978  -1.40109  -0.56563 
 H                    -3.50587  -0.15108  -0.08196 
 H                    -3.09588   1.68054   0.06894 
 H                    -4.16408   6.88171   1.27903 
 H                    -0.84568   5.87274  -0.18621 
 H                     1.49721   6.57468  -0.32699 
 H                     3.31225   4.91799  -0.2523 
 H                     7.39977   1.40119  -0.56507 
 H                     3.50586   0.15111  -0.08175 
 H                     3.09586  -1.68053   0.06876 
 H                     4.16372  -6.88208   1.2777 
 H                     0.84572  -5.87264  -0.18814 
 H                    -1.49715  -6.57454  -0.32952 
 H                    -3.31221  -4.9179   -0.25429 
 
 ITRead=  0  0  0  0  0  0  0  0  0  0  0  0  0  0  0  0  0  0  0  0
 ITRead=  0  0  0  0  0  0  0  0  0  0  0  0  0  0  0  0  0  0  0  0
 ITRead=  0  0  0  0  0  0  0  0  0  0  0  0  0  0  0  0  0  0  0  0
 ITRead=  0  0  0  0  0  0  0  0  0  0  0  0
 MicOpt= -1 -1 -1 -1 -1 -1 -1 -1 -1 -1 -1 -1 -1 -1 -1 -1 -1 -1 -1 -1
 MicOpt= -1 -1 -1 -1 -1 -1 -1 -1 -1 -1 -1 -1 -1 -1 -1 -1 -1 -1 -1 -1
 MicOpt= -1 -1 -1 -1 -1 -1 -1 -1 -1 -1 -1 -1 -1 -1 -1 -1 -1 -1 -1 -1
 MicOpt= -1 -1 -1 -1 -1 -1 -1 -1 -1 -1 -1 -1
 NAtoms=     72 NQM=       72 NQMF=       0 NMMI=      0 NMMIF=      0
                NMic=       0 NMicF=      0.
                    Isotopes and Nuclear Properties:
 (Nuclear quadrupole moments (NQMom) in fm**2, nuclear magnetic moments (NMagM)
  in nuclear magnetons)

  Atom         1           2           3           4           5           6           7           8           9          10
 IAtWgt=          16          14          16          12          12          16          12          12          12          12
 AtmWgt=  15.9949146  14.0030740  15.9949146  12.0000000  12.0000000  15.9949146  12.0000000  12.0000000  12.0000000  12.0000000
 NucSpn=           0           2           0           0           0           0           0           0           0           0
 AtZEff=  -0.0000000  -0.0000000  -0.0000000  -0.0000000  -0.0000000  -0.0000000  -0.0000000  -0.0000000  -0.0000000  -0.0000000
 NQMom=    0.0000000   2.0440000   0.0000000   0.0000000   0.0000000   0.0000000   0.0000000   0.0000000   0.0000000   0.0000000
 NMagM=    0.0000000   0.4037610   0.0000000   0.0000000   0.0000000   0.0000000   0.0000000   0.0000000   0.0000000   0.0000000
 AtZNuc=   8.0000000   7.0000000   8.0000000   6.0000000   6.0000000   8.0000000   6.0000000   6.0000000   6.0000000   6.0000000

  Atom        11          12          13          14          15          16          17          18          19          20
 IAtWgt=          12          12          12          12          14          12          14          16          16          12
 AtmWgt=  12.0000000  12.0000000  12.0000000  12.0000000  14.0030740  12.0000000  14.0030740  15.9949146  15.9949146  12.0000000
 NucSpn=           0           0           0           0           2           0           2           0           0           0
 AtZEff=  -0.0000000  -0.0000000  -0.0000000  -0.0000000  -0.0000000  -0.0000000  -0.0000000  -0.0000000  -0.0000000  -0.0000000
 NQMom=    0.0000000   0.0000000   0.0000000   0.0000000   2.0440000   0.0000000   2.0440000   0.0000000   0.0000000   0.0000000
 NMagM=    0.0000000   0.0000000   0.0000000   0.0000000   0.4037610   0.0000000   0.4037610   0.0000000   0.0000000   0.0000000
 AtZNuc=   6.0000000   6.0000000   6.0000000   6.0000000   7.0000000   6.0000000   7.0000000   8.0000000   8.0000000   6.0000000

  Atom        21          22          23          24          25          26          27          28          29          30
 IAtWgt=          16          12          12          12          12          12          12          12          14          12
 AtmWgt=  15.9949146  12.0000000  12.0000000  12.0000000  12.0000000  12.0000000  12.0000000  12.0000000  14.0030740  12.0000000
 NucSpn=           0           0           0           0           0           0           0           0           2           0
 AtZEff=  -0.0000000  -0.0000000  -0.0000000  -0.0000000  -0.0000000  -0.0000000  -0.0000000  -0.0000000  -0.0000000  -0.0000000
 NQMom=    0.0000000   0.0000000   0.0000000   0.0000000   0.0000000   0.0000000   0.0000000   0.0000000   2.0440000   0.0000000
 NMagM=    0.0000000   0.0000000   0.0000000   0.0000000   0.0000000   0.0000000   0.0000000   0.0000000   0.4037610   0.0000000
 AtZNuc=   8.0000000   6.0000000   6.0000000   6.0000000   6.0000000   6.0000000   6.0000000   6.0000000   7.0000000   6.0000000

  Atom        31          32          33          34          35          36          37          38          39          40
 IAtWgt=          14          16          16          12          16          12          12          12          12          12
 AtmWgt=  14.0030740  15.9949146  15.9949146  12.0000000  15.9949146  12.0000000  12.0000000  12.0000000  12.0000000  12.0000000
 NucSpn=           2           0           0           0           0           0           0           0           0           0
 AtZEff=  -0.0000000  -0.0000000  -0.0000000  -0.0000000  -0.0000000  -0.0000000  -0.0000000  -0.0000000  -0.0000000  -0.0000000
 NQMom=    2.0440000   0.0000000   0.0000000   0.0000000   0.0000000   0.0000000   0.0000000   0.0000000   0.0000000   0.0000000
 NMagM=    0.4037610   0.0000000   0.0000000   0.0000000   0.0000000   0.0000000   0.0000000   0.0000000   0.0000000   0.0000000
 AtZNuc=   7.0000000   8.0000000   8.0000000   6.0000000   8.0000000   6.0000000   6.0000000   6.0000000   6.0000000   6.0000000

  Atom        41          42          43          44          45          46          47          48          49          50
 IAtWgt=          12          14          12          14          16          16          12          16          12          12
 AtmWgt=  12.0000000  14.0030740  12.0000000  14.0030740  15.9949146  15.9949146  12.0000000  15.9949146  12.0000000  12.0000000
 NucSpn=           0           2           0           2           0           0           0           0           0           0
 AtZEff=  -0.0000000  -0.0000000  -0.0000000  -0.0000000  -0.0000000  -0.0000000  -0.0000000  -0.0000000  -0.0000000  -0.0000000
 NQMom=    0.0000000   2.0440000   0.0000000   2.0440000   0.0000000   0.0000000   0.0000000   0.0000000   0.0000000   0.0000000
 NMagM=    0.0000000   0.4037610   0.0000000   0.4037610   0.0000000   0.0000000   0.0000000   0.0000000   0.0000000   0.0000000
 AtZNuc=   6.0000000   7.0000000   6.0000000   7.0000000   8.0000000   8.0000000   6.0000000   8.0000000   6.0000000   6.0000000

  Atom        51          52          53          54          55          56          57          58          59          60
 IAtWgt=          12          12          12          12          12          12          12          14           1           1
 AtmWgt=  12.0000000  12.0000000  12.0000000  12.0000000  12.0000000  12.0000000  12.0000000  14.0030740   1.0078250   1.0078250
 NucSpn=           0           0           0           0           0           0           0           2           1           1
 AtZEff=  -0.0000000  -0.0000000  -0.0000000  -0.0000000  -0.0000000  -0.0000000  -0.0000000  -0.0000000  -0.0000000  -0.0000000
 NQMom=    0.0000000   0.0000000   0.0000000   0.0000000   0.0000000   0.0000000   0.0000000   2.0440000   0.0000000   0.0000000
 NMagM=    0.0000000   0.0000000   0.0000000   0.0000000   0.0000000   0.0000000   0.0000000   0.4037610   2.7928460   2.7928460
 AtZNuc=   6.0000000   6.0000000   6.0000000   6.0000000   6.0000000   6.0000000   6.0000000   7.0000000   1.0000000   1.0000000

  Atom        61          62          63          64          65          66          67          68          69          70
 IAtWgt=           1           1           1           1           1           1           1           1           1           1
 AtmWgt=   1.0078250   1.0078250   1.0078250   1.0078250   1.0078250   1.0078250   1.0078250   1.0078250   1.0078250   1.0078250
 NucSpn=           1           1           1           1           1           1           1           1           1           1
 AtZEff=  -0.0000000  -0.0000000  -0.0000000  -0.0000000  -0.0000000  -0.0000000  -0.0000000  -0.0000000  -0.0000000  -0.0000000
 NQMom=    0.0000000   0.0000000   0.0000000   0.0000000   0.0000000   0.0000000   0.0000000   0.0000000   0.0000000   0.0000000
 NMagM=    2.7928460   2.7928460   2.7928460   2.7928460   2.7928460   2.7928460   2.7928460   2.7928460   2.7928460   2.7928460
 AtZNuc=   1.0000000   1.0000000   1.0000000   1.0000000   1.0000000   1.0000000   1.0000000   1.0000000   1.0000000   1.0000000

  Atom        71          72
 IAtWgt=           1           1
 AtmWgt=   1.0078250   1.0078250
 NucSpn=           1           1
 AtZEff=  -0.0000000  -0.0000000
 NQMom=    0.0000000   0.0000000
 NMagM=    2.7928460   2.7928460
 AtZNuc=   1.0000000   1.0000000
 Leave Link  101 at Wed Oct 31 09:58:22 2018, MaxMem=  1073741824 cpu:               3.6 elap:               0.3
 (Enter /shared/centos7/gaussian/g16/l103.exe)

 GradGradGradGradGradGradGradGradGradGradGradGradGradGradGradGradGradGrad
 Berny optimization.
 Initialization pass.
 Trust Radius=3.00D-01 FncErr=1.00D-07 GrdErr=1.00D-07 EigMax=2.50D+02 EigMin=1.00D-04
 Number of steps in this run=      2 maximum allowed number of steps=      2.
 GradGradGradGradGradGradGradGradGradGradGradGradGradGradGradGradGradGrad

 Leave Link  103 at Wed Oct 31 09:58:22 2018, MaxMem=  1073741824 cpu:               0.2 elap:               0.0
 (Enter /shared/centos7/gaussian/g16/l202.exe)
 Stoichiometry    C38H14N8O12
 Framework group  C1[X(C38H14N8O12)]
 Deg. of freedom   210
 Full point group                 C1      NOp   1
 Largest Abelian subgroup         C1      NOp   1
 Largest concise Abelian subgroup C1      NOp   1
                         Standard orientation:                         
 ---------------------------------------------------------------------
 Center     Atomic      Atomic             Coordinates (Angstroms)
 Number     Number       Type             X           Y           Z
 ---------------------------------------------------------------------
      1          8           0        8.589531    3.876957    0.105840
      2          7           0        7.439691    4.276767    0.261460
      3          8           0        7.131192    5.410478    0.594490
      4          6           0        6.391211    3.328058    0.031460
      5          6           0        6.552881    2.032628   -0.345680
      6          8           0        5.318601    1.516448   -0.444210
      7          6           0        4.453181    2.532138   -0.114280
      8          6           0        3.033151    2.202249   -0.109310
      9          6           0        2.700030    0.874959   -0.085220
     10          6           0        1.356270    0.420629   -0.060300
     11          6           0        1.039800   -0.967791   -0.041740
     12          6           0        2.050640   -1.963301    0.008880
     13          6           0        1.763219   -3.299511    0.020550
     14          6           0        2.912209   -4.194141    0.117780
     15          7           0        4.114779   -3.981032   -0.324830
     16          6           0        4.815519   -5.070862    0.101060
     17          7           0        6.209969   -5.254722   -0.177030
     18          8           0        6.792309   -4.389362   -0.811620
     19          8           0        6.726129   -6.282912    0.249240
     20          6           0        4.020369   -5.930012    0.791330
     21          8           0        2.797189   -5.372281    0.806910
     22          6           0        0.399289   -3.762721   -0.055460
     23          6           0        0.066459   -5.119631   -0.158850
     24          6           0       -1.258051   -5.518450   -0.238440
     25          6           0       -2.282551   -4.584380   -0.204820
     26          6           0       -2.001061   -3.214910   -0.117260
     27          6           0       -3.033160   -2.202290   -0.108420
     28          6           0       -4.453200   -2.532169   -0.113360
     29          7           0       -5.070671   -3.637789    0.177470
     30          6           0       -6.391241   -3.328019    0.032540
     31          7           0       -7.439741   -4.276658    0.262760
     32          8           0       -8.589571   -3.876878    0.107000
     33          8           0       -7.131261   -5.410289    0.596100
     34          6           0       -6.552880   -2.032689   -0.344940
     35          8           0       -5.318600   -1.516549   -0.443570
     36          6           0       -2.700030   -0.875000   -0.084790
     37          6           0       -1.356270   -0.420670   -0.059630
     38          6           0       -1.039810    0.967760   -0.042410
     39          6           0       -2.050629    1.963280    0.008480
     40          6           0       -1.763219    3.299480    0.019700
     41          6           0       -2.912169    4.194160    0.116940
     42          7           0       -4.114849    3.980931   -0.325330
     43          6           0       -4.815468    5.070901    0.100410
     44          7           0       -6.209978    5.254701   -0.177400
     45          8           0       -6.726028    6.283021    0.248690
     46          8           0       -6.792489    4.389161   -0.811600
     47          6           0       -4.020148    5.930241    0.790240
     48          8           0       -2.796968    5.372510    0.805680
     49          6           0       -0.399289    3.762680   -0.056590
     50          6           0       -0.066488    5.119550   -0.160600
     51          6           0        1.258012    5.518339   -0.240510
     52          6           0        2.282511    4.584289   -0.206610
     53          6           0        2.001041    3.214869   -0.118420
     54          6           0        0.639901    2.783569   -0.068290
     55          6           0        0.317431    1.389319   -0.051390
     56          6           0       -0.317430   -1.389360   -0.051560
     57          6           0       -0.639921   -2.783620   -0.067120
     58          7           0        5.070631    3.637838    0.176270
     59          1           0        7.399781    1.401087   -0.565630
     60          1           0        3.505870    0.151079   -0.081960
     61          1           0        3.095880   -1.680541    0.068940
     62          1           0        4.164078   -6.881712    1.279030
     63          1           0        0.845679   -5.872741   -0.186210
     64          1           0       -1.497212   -6.574680   -0.326990
     65          1           0       -3.312251   -4.917990   -0.252300
     66          1           0       -7.399770   -1.401189   -0.565070
     67          1           0       -3.505860   -0.151110   -0.081750
     68          1           0       -3.095859    1.680530    0.068760
     69          1           0       -4.163718    6.882081    1.277700
     70          1           0       -0.845718    5.872640   -0.188140
     71          1           0        1.497152    6.574539   -0.329520
     72          1           0        3.312212    4.917899   -0.254290
 ---------------------------------------------------------------------
 Rotational constants (GHZ):           0.0407513           0.0301635           0.0174482
 Leave Link  202 at Wed Oct 31 09:58:22 2018, MaxMem=  1073741824 cpu:               0.3 elap:               0.0
 (Enter /shared/centos7/gaussian/g16/l301.exe)
 Standard basis: 6-31+G(d,p) (6D, 7F)
 Ernie: Thresh=  0.10000D-02 Tol=  0.10000D-05 Strict=F.
 There are  1172 symmetry adapted cartesian basis functions of A   symmetry.
 There are  1172 symmetry adapted basis functions of A   symmetry.
  1172 basis functions,  1954 primitive gaussians,  1172 cartesian basis functions
   197 alpha electrons      197 beta electrons
       nuclear repulsion energy      7266.4184509876 Hartrees.
 IExCor= 4235 DFT=T Ex+Corr=M06 ExCW=0 ScaHFX=  0.270000
 ScaDFX=  1.000000  1.000000  1.000000  1.000000 ScalE2=  1.000000  1.000000
 IRadAn=      5 IRanWt=     -1 IRanGd=            0 ICorTp=0 IEmpDi=  4
 NAtoms=   72 NActive=   72 NUniq=   72 SFac= 1.00D+00 NAtFMM=   60 NAOKFM=T Big=T
 Integral buffers will be    131072 words long.
 Raffenetti 2 integral format.
 Two-electron integral symmetry is turned on.
 Force inversion solution in PCM.
 ------------------------------------------------------------------------------
 Polarizable Continuum Model (PCM)
 =================================
 Model                : PCM.
 Atomic radii         : UFF (Universal Force Field).
 Polarization charges : Total charges.
 Charge compensation  : None.
 Solution method      : Matrix inversion.
 Cavity type          : Scaled VdW (van der Waals Surface) (Alpha=1.100).
 Cavity algorithm     : GePol (No added spheres)
                        Default sphere list used, NSphG=   72.
                        Lebedev-Laikov grids with approx.  5.0 points / Ang**2.
                        Smoothing algorithm: York/Karplus (Gamma=1.0000).
                        Polarization charges: spherical gaussians, with
                                              point-specific exponents (IZeta= 3).
                        Self-potential: point-specific (ISelfS= 7).
                        Self-field    : sphere-specific E.n sum rule (ISelfD= 2).
 1st derivatives      : Analytical E(r).r(x)/FMM algorithm (CHGder, D1EAlg=3).
                        Cavity 1st derivative terms included.
 2nd derivatives      : Analytical E(r).r(xy)/FMM algorithm (CHGder, D2EAlg=3).
                        Cavity 2nd derivative terms included.
 Solvent              : Acetonitrile, Eps=  35.688000 Eps(inf)=   1.806874
 ------------------------------------------------------------------------------
 GePol: Number of generator spheres                  =      72
 GePol: Total number of spheres                      =      72
 GePol: Number of exposed spheres                    =      72 (100.00%)
 GePol: Number of points                             =    5855
 GePol: Average weight of points                     =       0.12
 GePol: Minimum weight of points                     =   0.54D-11
 GePol: Maximum weight of points                     =    0.20577
 GePol: Number of points with low weight             =     348
 GePol: Fraction of low-weight points (<1% of avg)   =       5.94%
 GePol: Cavity surface area                          =    724.237 Ang**2
 GePol: Cavity volume                                =    850.776 Ang**3
 Leave Link  301 at Wed Oct 31 09:58:22 2018, MaxMem=  1073741824 cpu:               1.3 elap:               0.1
 (Enter /shared/centos7/gaussian/g16/l302.exe)
 NPDir=0 NMtPBC=     1 NCelOv=     1 NCel=       1 NClECP=     1 NCelD=      1
         NCelK=      1 NCelE2=     1 NClLst=     1 CellRange=     0.0.
 One-electron integrals computed using PRISM.
 One-electron integral symmetry used in STVInt
 NBasis=  1172 RedAO= T EigKep=  1.11D-06  NBF=  1172
 NBsUse=  1141 1.00D-06 EigRej=  8.72D-07 NBFU=  1141
 Precomputing XC quadrature grid using
 IXCGrd= 4 IRadAn=           5 IRanWt=          -1 IRanGd=           0 AccXCQ= 0.00D+00.
 Generated NRdTot=       0 NPtTot=           0 NUsed=           0 NTot=          32
 NSgBfM=  1088  1088  1088  1088  1088 MxSgAt=    72 MxSgA2=    72.
 Leave Link  302 at Wed Oct 31 09:58:26 2018, MaxMem=  1073741824 cpu:              59.5 elap:               3.8
 (Enter /shared/centos7/gaussian/g16/l303.exe)
 DipDrv:  MaxL=1.
 Leave Link  303 at Wed Oct 31 09:58:26 2018, MaxMem=  1073741824 cpu:               2.8 elap:               0.4
 (Enter /shared/centos7/gaussian/g16/l401.exe)
 ExpMin= 4.38D-02 ExpMax= 5.48D+03 ExpMxC= 8.25D+02 IAcc=3 IRadAn=         5 AccDes= 0.00D+00
 Harris functional with IExCor= 1009 and IRadAn=       5 diagonalized for initial guess.
 HarFok:  IExCor= 1009 AccDes= 0.00D+00 IRadAn=         5 IDoV= 1 UseB2=F ITyADJ=14
 ICtDFT=  3500011 ScaDFX=  1.000000  1.000000  1.000000  1.000000
 FoFCou: FMM=F IPFlag=           0 FMFlag=      100000 FMFlg1=        2001
         NFxFlg=           0 DoJE=T BraDBF=F KetDBF=T FulRan=T
         wScrn=  0.000000 ICntrl=       500 IOpCl=  0 I1Cent=   200000004 NGrid=           0
         NMat0=    1 NMatS0=      1 NMatT0=    0 NMatD0=    1 NMtDS0=    0 NMtDT0=    0
 Petite list used in FoFCou.
 Harris En= -2794.26197281566    
 JPrj=0 DoOrth=F DoCkMO=F.
 Leave Link  401 at Wed Oct 31 09:58:39 2018, MaxMem=  1073741824 cpu:             196.1 elap:              12.5
 (Enter /shared/centos7/gaussian/g16/l502.exe)
 Integral symmetry usage will be decided dynamically.
 Closed shell SCF:
 Using DIIS extrapolation, IDIIS=  1040.
 NGot=  1073741824 LenX=  1070965108 LenY=  1069590352
 Requested convergence on RMS density matrix=1.00D-08 within 128 cycles.
 Requested convergence on MAX density matrix=1.00D-06.
 Requested convergence on             energy=1.00D-06.
 No special actions if energy rises.
 Fock matrices will be formed incrementally for  20 cycles.

 Cycle   1  Pass 1  IDiag  1:
 FoFJK:  IHMeth= 1 ICntrl=       0 DoSepK=F KAlg= 0 I1Cent=           0 FoldK=F
 IRaf= 730000000 NMat=       1 IRICut=       1 DoRegI=T DoRafI=F ISym2E= 0 IDoP0=0 IntGTp=1.
 FoFCou: FMM=T IPFlag=           0 FMFlag=      100000 FMFlg1=        2001
         NFxFlg=           0 DoJE=F BraDBF=F KetDBF=F FulRan=T
         wScrn=  0.000000 ICntrl=         0 IOpCl=  0 I1Cent=           0 NGrid=           0
         NMat0=    1 NMatS0=      1 NMatT0=    0 NMatD0=    1 NMtDS0=    0 NMtDT0=    0
 Symmetry not used in FoFCou.
 FMM levels:  10  Number of levels for PrismC:   9
 Inv3:  Mode=1 IEnd=   102843075.
 Iteration    1 A*A^-1 deviation from unit magnitude is 1.13D-14 for   5087.
 Iteration    1 A*A^-1 deviation from orthogonality  is 6.75D-15 for   4098   3768.
 Iteration    1 A^-1*A deviation from unit magnitude is 1.13D-14 for   5087.
 Iteration    1 A^-1*A deviation from orthogonality  is 7.54D-15 for   4799   2977.
 E= -2794.38039166168    
 DIIS: error= 2.04D-02 at cycle   1 NSaved=   1.
 NSaved= 1 IEnMin= 1 EnMin= -2794.38039166168     IErMin= 1 ErrMin= 2.04D-02
 ErrMax= 2.04D-02  0.00D+00 EMaxC= 1.00D-01 BMatC= 1.06D+00 BMatP= 1.06D+00
 IDIUse=3 WtCom= 7.96D-01 WtEn= 2.04D-01
 Coeff-Com:  0.100D+01
 Coeff-En:   0.100D+01
 Coeff:      0.100D+01
 Gap=     0.130 Goal=   None    Shift=    0.000
 GapD=    0.130 DampG=1.000 DampE=0.500 DampFc=0.5000 IDamp=-1.
 Damping current iteration by 5.00D-01
 RMSDP=1.66D-02 MaxDP=1.95D+00              OVMax= 2.97D-01

 Cycle   2  Pass 1  IDiag  1:
 RMSU=  6.93D-03    CP:  1.12D+00
 E= -2794.65157209457     Delta-E=       -0.271180432890 Rises=F Damp=T
 DIIS: error= 8.09D-03 at cycle   2 NSaved=   2.
 NSaved= 2 IEnMin= 2 EnMin= -2794.65157209457     IErMin= 2 ErrMin= 8.09D-03
 ErrMax= 8.09D-03  0.00D+00 EMaxC= 1.00D-01 BMatC= 1.48D-01 BMatP= 1.06D+00
 IDIUse=3 WtCom= 9.19D-01 WtEn= 8.09D-02
 Coeff-Com:  0.220D+00 0.780D+00
 Coeff-En:   0.320D+00 0.680D+00
 Coeff:      0.228D+00 0.772D+00
 Gap=     0.080 Goal=   None    Shift=    0.000
 RMSDP=7.31D-03 MaxDP=1.44D+00 DE=-2.71D-01 OVMax= 1.97D-01

 Cycle   3  Pass 1  IDiag  1:
 RMSU=  3.59D-03    CP:  9.54D-01  9.14D-01
 E= -2795.24428698110     Delta-E=       -0.592714886532 Rises=F Damp=F
 DIIS: error= 2.91D-03 at cycle   3 NSaved=   3.
 NSaved= 3 IEnMin= 3 EnMin= -2795.24428698110     IErMin= 3 ErrMin= 2.91D-03
 ErrMax= 2.91D-03  0.00D+00 EMaxC= 1.00D-01 BMatC= 3.03D-02 BMatP= 1.48D-01
 IDIUse=3 WtCom= 9.71D-01 WtEn= 2.91D-02
 Coeff-Com:  0.454D-01 0.315D+00 0.640D+00
 Coeff-En:   0.000D+00 0.000D+00 0.100D+01
 Coeff:      0.441D-01 0.306D+00 0.650D+00
 Gap=     0.105 Goal=   None    Shift=    0.000
 RMSDP=1.61D-03 MaxDP=2.68D-01 DE=-5.93D-01 OVMax= 2.93D-02

 Cycle   4  Pass 1  IDiag  1:
 RMSU=  1.14D-03    CP:  9.29D-01  8.20D-01  9.71D-01
 E= -2795.26814196826     Delta-E=       -0.023854987161 Rises=F Damp=F
 DIIS: error= 9.17D-04 at cycle   4 NSaved=   4.
 NSaved= 4 IEnMin= 4 EnMin= -2795.26814196826     IErMin= 4 ErrMin= 9.17D-04
 ErrMax= 9.17D-04  0.00D+00 EMaxC= 1.00D-01 BMatC= 3.92D-03 BMatP= 3.03D-02
 IDIUse=3 WtCom= 9.91D-01 WtEn= 9.17D-03
 Coeff-Com:  0.842D-02 0.724D-01 0.303D+00 0.616D+00
 Coeff-En:   0.000D+00 0.000D+00 0.207D-01 0.979D+00
 Coeff:      0.835D-02 0.717D-01 0.300D+00 0.620D+00
 Gap=     0.097 Goal=   None    Shift=    0.000
 RMSDP=5.20D-04 MaxDP=3.75D-02 DE=-2.39D-02 OVMax= 9.25D-03

 Cycle   5  Pass 1  IDiag  1:
 RMSU=  3.90D-04    CP:  9.26D-01  8.45D-01  9.72D-01  7.49D-01
 E= -2795.27113611103     Delta-E=       -0.002994142767 Rises=F Damp=F
 DIIS: error= 5.03D-04 at cycle   5 NSaved=   5.
 NSaved= 5 IEnMin= 5 EnMin= -2795.27113611103     IErMin= 5 ErrMin= 5.03D-04
 ErrMax= 5.03D-04  0.00D+00 EMaxC= 1.00D-01 BMatC= 5.20D-04 BMatP= 3.92D-03
 IDIUse=3 WtCom= 9.95D-01 WtEn= 5.03D-03
 Coeff-Com:  0.627D-03 0.713D-02 0.105D+00 0.335D+00 0.553D+00
 Coeff-En:   0.000D+00 0.000D+00 0.000D+00 0.157D-01 0.984D+00
 Coeff:      0.624D-03 0.709D-02 0.104D+00 0.333D+00 0.555D+00
 Gap=     0.097 Goal=   None    Shift=    0.000
 RMSDP=1.89D-04 MaxDP=2.38D-02 DE=-2.99D-03 OVMax= 5.11D-03

 Cycle   6  Pass 1  IDiag  1:
 RMSU=  1.45D-04    CP:  9.28D-01  8.47D-01  9.71D-01  7.17D-01  7.73D-01
 E= -2795.27155581311     Delta-E=       -0.000419702084 Rises=F Damp=F
 DIIS: error= 2.39D-04 at cycle   6 NSaved=   6.
 NSaved= 6 IEnMin= 6 EnMin= -2795.27155581311     IErMin= 6 ErrMin= 2.39D-04
 ErrMax= 2.39D-04  0.00D+00 EMaxC= 1.00D-01 BMatC= 7.59D-05 BMatP= 5.20D-04
 IDIUse=3 WtCom= 9.98D-01 WtEn= 2.39D-03
 Coeff-Com: -0.219D-03-0.319D-02 0.291D-01 0.120D+00 0.326D+00 0.529D+00
 Coeff-En:   0.000D+00 0.000D+00 0.000D+00 0.000D+00 0.883D-01 0.912D+00
 Coeff:     -0.218D-03-0.318D-02 0.290D-01 0.119D+00 0.325D+00 0.530D+00
 Gap=     0.097 Goal=   None    Shift=    0.000
 RMSDP=7.55D-05 MaxDP=1.59D-02 DE=-4.20D-04 OVMax= 2.02D-03

 Cycle   7  Pass 1  IDiag  1:
 RMSU=  3.61D-05    CP:  9.27D-01  8.43D-01  9.73D-01  7.36D-01  7.95D-01
                    CP:  8.95D-01
 E= -2795.27161806900     Delta-E=       -0.000062255884 Rises=F Damp=F
 DIIS: error= 6.35D-05 at cycle   7 NSaved=   7.
 NSaved= 7 IEnMin= 7 EnMin= -2795.27161806900     IErMin= 7 ErrMin= 6.35D-05
 ErrMax= 6.35D-05  0.00D+00 EMaxC= 1.00D-01 BMatC= 8.94D-06 BMatP= 7.59D-05
 IDIUse=1 WtCom= 1.00D+00 WtEn= 0.00D+00
 Coeff-Com: -0.128D-03-0.287D-02 0.648D-02 0.355D-01 0.137D+00 0.315D+00
 Coeff-Com:  0.509D+00
 Coeff:     -0.128D-03-0.287D-02 0.648D-02 0.355D-01 0.137D+00 0.315D+00
 Coeff:      0.509D+00
 Gap=     0.097 Goal=   None    Shift=    0.000
 RMSDP=2.29D-05 MaxDP=4.98D-03 DE=-6.23D-05 OVMax= 7.38D-04

 Cycle   8  Pass 1  IDiag  1:
 RMSU=  1.60D-05    CP:  9.27D-01  8.42D-01  9.74D-01  7.43D-01  8.07D-01
                    CP:  8.46D-01  1.08D+00
 E= -2795.27162441524     Delta-E=       -0.000006346247 Rises=F Damp=F
 DIIS: error= 3.11D-05 at cycle   8 NSaved=   8.
 NSaved= 8 IEnMin= 8 EnMin= -2795.27162441524     IErMin= 8 ErrMin= 3.11D-05
 ErrMax= 3.11D-05  0.00D+00 EMaxC= 1.00D-01 BMatC= 1.72D-06 BMatP= 8.94D-06
 IDIUse=1 WtCom= 1.00D+00 WtEn= 0.00D+00
 Coeff-Com: -0.173D-04-0.149D-02-0.277D-03 0.440D-02 0.379D-01 0.120D+00
 Coeff-Com:  0.331D+00 0.508D+00
 Coeff:     -0.173D-04-0.149D-02-0.277D-03 0.440D-02 0.379D-01 0.120D+00
 Coeff:      0.331D+00 0.508D+00
 Gap=     0.097 Goal=   None    Shift=    0.000
 RMSDP=6.60D-06 MaxDP=6.91D-04 DE=-6.35D-06 OVMax= 3.75D-04

 Cycle   9  Pass 1  IDiag  1:
 RMSU=  4.58D-06    CP:  9.27D-01  8.42D-01  9.74D-01  7.43D-01  8.05D-01
                    CP:  8.68D-01  1.05D+00  8.97D-01
 E= -2795.27162565113     Delta-E=       -0.000001235887 Rises=F Damp=F
 DIIS: error= 1.24D-05 at cycle   9 NSaved=   9.
 NSaved= 9 IEnMin= 9 EnMin= -2795.27162565113     IErMin= 9 ErrMin= 1.24D-05
 ErrMax= 1.24D-05  0.00D+00 EMaxC= 1.00D-01 BMatC= 3.25D-07 BMatP= 1.72D-06
 IDIUse=1 WtCom= 1.00D+00 WtEn= 0.00D+00
 Coeff-Com:  0.363D-04-0.357D-03-0.144D-02-0.485D-02-0.592D-02 0.848D-02
 Coeff-Com:  0.104D+00 0.337D+00 0.563D+00
 Coeff:      0.363D-04-0.357D-03-0.144D-02-0.485D-02-0.592D-02 0.848D-02
 Coeff:      0.104D+00 0.337D+00 0.563D+00
 Gap=     0.097 Goal=   None    Shift=    0.000
 RMSDP=3.93D-06 MaxDP=3.68D-04 DE=-1.24D-06 OVMax= 1.18D-04

 Cycle  10  Pass 1  IDiag  1:
 RMSU=  2.63D-06    CP:  9.27D-01  8.43D-01  9.74D-01  7.42D-01  8.06D-01
                    CP:  8.81D-01  1.06D+00  8.21D-01  9.55D-01
 E= -2795.27162590057     Delta-E=       -0.000000249438 Rises=F Damp=F
 DIIS: error= 2.53D-06 at cycle  10 NSaved=  10.
 NSaved=10 IEnMin=10 EnMin= -2795.27162590057     IErMin=10 ErrMin= 2.53D-06
 ErrMax= 2.53D-06  0.00D+00 EMaxC= 1.00D-01 BMatC= 3.18D-08 BMatP= 3.25D-07
 IDIUse=1 WtCom= 1.00D+00 WtEn= 0.00D+00
 Coeff-Com:  0.288D-04 0.132D-04-0.687D-03-0.334D-02-0.870D-02-0.113D-01
 Coeff-Com:  0.148D-01 0.123D+00 0.311D+00 0.575D+00
 Coeff:      0.288D-04 0.132D-04-0.687D-03-0.334D-02-0.870D-02-0.113D-01
 Coeff:      0.148D-01 0.123D+00 0.311D+00 0.575D+00
 Gap=     0.097 Goal=   None    Shift=    0.000
 RMSDP=2.05D-06 MaxDP=5.00D-04 DE=-2.49D-07 OVMax= 5.37D-05

 Cycle  11  Pass 1  IDiag  1:
 RMSU=  9.55D-07    CP:  9.27D-01  8.43D-01  9.74D-01  7.42D-01  8.08D-01
                    CP:  8.79D-01  1.08D+00  8.74D-01  9.72D-01  1.03D+00
 E= -2795.27162593133     Delta-E=       -0.000000030763 Rises=F Damp=F
 DIIS: error= 1.27D-06 at cycle  11 NSaved=  11.
 NSaved=11 IEnMin=11 EnMin= -2795.27162593133     IErMin=11 ErrMin= 1.27D-06
 ErrMax= 1.27D-06  0.00D+00 EMaxC= 1.00D-01 BMatC= 2.01D-09 BMatP= 3.18D-08
 IDIUse=1 WtCom= 1.00D+00 WtEn= 0.00D+00
 Coeff-Com:  0.773D-05 0.422D-04-0.114D-03-0.834D-03-0.298D-02-0.534D-02
 Coeff-Com: -0.463D-02 0.144D-01 0.647D-01 0.244D+00 0.691D+00
 Coeff:      0.773D-05 0.422D-04-0.114D-03-0.834D-03-0.298D-02-0.534D-02
 Coeff:     -0.463D-02 0.144D-01 0.647D-01 0.244D+00 0.691D+00
 Gap=     0.098 Goal=   None    Shift=    0.000
 RMSDP=4.25D-07 MaxDP=5.64D-05 DE=-3.08D-08 OVMax= 2.45D-05

 Cycle  12  Pass 1  IDiag  1:
 RMSU=  2.60D-07    CP:  9.27D-01  8.43D-01  9.74D-01  7.42D-01  8.08D-01
                    CP:  8.80D-01  1.08D+00  8.75D-01  9.85D-01  1.07D+00
                    CP:  9.57D-01
 E= -2795.27162593253     Delta-E=       -0.000000001199 Rises=F Damp=F
 DIIS: error= 3.38D-07 at cycle  12 NSaved=  12.
 NSaved=12 IEnMin=12 EnMin= -2795.27162593253     IErMin=12 ErrMin= 3.38D-07
 ErrMax= 3.38D-07  0.00D+00 EMaxC= 1.00D-01 BMatC= 4.56D-10 BMatP= 2.01D-09
 IDIUse=1 WtCom= 1.00D+00 WtEn= 0.00D+00
 Coeff-Com:  0.134D-06 0.205D-04-0.452D-06-0.120D-03-0.733D-03-0.163D-02
 Coeff-Com: -0.398D-02-0.577D-02 0.943D-04 0.685D-01 0.382D+00 0.562D+00
 Coeff:      0.134D-06 0.205D-04-0.452D-06-0.120D-03-0.733D-03-0.163D-02
 Coeff:     -0.398D-02-0.577D-02 0.943D-04 0.685D-01 0.382D+00 0.562D+00
 Gap=     0.098 Goal=   None    Shift=    0.000
 RMSDP=1.83D-07 MaxDP=1.62D-05 DE=-1.20D-09 OVMax= 8.18D-06

 Cycle  13  Pass 1  IDiag  1:
 RMSU=  1.29D-07    CP:  9.27D-01  8.43D-01  9.74D-01  7.42D-01  8.08D-01
                    CP:  8.80D-01  1.09D+00  8.77D-01  9.86D-01  1.08D+00
                    CP:  1.04D+00  7.82D-01
 E= -2795.27162593311     Delta-E=       -0.000000000584 Rises=F Damp=F
 DIIS: error= 1.16D-07 at cycle  13 NSaved=  13.
 NSaved=13 IEnMin=13 EnMin= -2795.27162593311     IErMin=13 ErrMin= 1.16D-07
 ErrMax= 1.16D-07  0.00D+00 EMaxC= 1.00D-01 BMatC= 2.42D-11 BMatP= 4.56D-10
 IDIUse=1 WtCom= 1.00D+00 WtEn= 0.00D+00
 Coeff-Com: -0.109D-05 0.439D-05 0.107D-04 0.446D-04 0.420D-04-0.474D-04
 Coeff-Com: -0.997D-03-0.380D-02-0.687D-02 0.117D-02 0.751D-01 0.214D+00
 Coeff-Com:  0.721D+00
 Coeff:     -0.109D-05 0.439D-05 0.107D-04 0.446D-04 0.420D-04-0.474D-04
 Coeff:     -0.997D-03-0.380D-02-0.687D-02 0.117D-02 0.751D-01 0.214D+00
 Coeff:      0.721D+00
 Gap=     0.098 Goal=   None    Shift=    0.000
 RMSDP=5.36D-08 MaxDP=4.51D-06 DE=-5.84D-10 OVMax= 3.59D-06

 Cycle  14  Pass 1  IDiag  1:
 RMSU=  3.36D-08    CP:  9.27D-01  8.43D-01  9.74D-01  7.42D-01  8.08D-01
                    CP:  8.80D-01  1.09D+00  8.77D-01  9.87D-01  1.08D+00
                    CP:  1.05D+00  8.35D-01  9.99D-01
 E= -2795.27162593266     Delta-E=        0.000000000458 Rises=F Damp=F
 DIIS: error= 6.19D-08 at cycle  14 NSaved=  14.
 NSaved=14 IEnMin=13 EnMin= -2795.27162593311     IErMin=14 ErrMin= 6.19D-08
 ErrMax= 6.19D-08  0.00D+00 EMaxC= 1.00D-01 BMatC= 9.68D-12 BMatP= 2.42D-11
 IDIUse=1 WtCom= 1.00D+00 WtEn= 0.00D+00
 Coeff-Com: -0.771D-06 0.390D-06 0.744D-05 0.465D-04 0.131D-03 0.184D-03
 Coeff-Com: -0.102D-03-0.173D-02-0.458D-02-0.849D-02-0.533D-02 0.523D-01
 Coeff-Com:  0.444D+00 0.524D+00
 Coeff:     -0.771D-06 0.390D-06 0.744D-05 0.465D-04 0.131D-03 0.184D-03
 Coeff:     -0.102D-03-0.173D-02-0.458D-02-0.849D-02-0.533D-02 0.523D-01
 Coeff:      0.444D+00 0.524D+00
 Gap=     0.098 Goal=   None    Shift=    0.000
 RMSDP=2.52D-08 MaxDP=3.44D-06 DE= 4.58D-10 OVMax= 1.14D-06

 Cycle  15  Pass 1  IDiag  1:
 RMSU=  1.27D-08    CP:  9.27D-01  8.43D-01  9.74D-01  7.42D-01  8.08D-01
                    CP:  8.80D-01  1.09D+00  8.77D-01  9.86D-01  1.09D+00
                    CP:  1.06D+00  8.31D-01  1.06D+00  8.20D-01
 E= -2795.27162593301     Delta-E=       -0.000000000353 Rises=F Damp=F
 DIIS: error= 1.77D-08 at cycle  15 NSaved=  15.
 NSaved=15 IEnMin=13 EnMin= -2795.27162593311     IErMin=15 ErrMin= 1.77D-08
 ErrMax= 1.77D-08  0.00D+00 EMaxC= 1.00D-01 BMatC= 6.88D-13 BMatP= 9.68D-12
 IDIUse=1 WtCom= 1.00D+00 WtEn= 0.00D+00
 Coeff-Com: -0.274D-06-0.244D-06 0.222D-05 0.173D-04 0.583D-04 0.907D-04
 Coeff-Com:  0.689D-04-0.408D-03-0.145D-02-0.388D-02-0.102D-01 0.538D-03
 Coeff-Com:  0.140D+00 0.256D+00 0.619D+00
 Coeff:     -0.274D-06-0.244D-06 0.222D-05 0.173D-04 0.583D-04 0.907D-04
 Coeff:      0.689D-04-0.408D-03-0.145D-02-0.388D-02-0.102D-01 0.538D-03
 Coeff:      0.140D+00 0.256D+00 0.619D+00
 Gap=     0.098 Goal=   None    Shift=    0.000
 RMSDP=1.01D-08 MaxDP=2.06D-06 DE=-3.53D-10 OVMax= 2.86D-07

 Cycle  16  Pass 1  IDiag  1:
 RMSU=  4.52D-09    CP:  9.27D-01  8.43D-01  9.74D-01  7.42D-01  8.08D-01
                    CP:  8.80D-01  1.09D+00  8.77D-01  9.86D-01  1.09D+00
                    CP:  1.07D+00  8.38D-01  1.08D+00  8.60D-01  1.04D+00
 E= -2795.27162593338     Delta-E=       -0.000000000369 Rises=F Damp=F
 DIIS: error= 1.66D-08 at cycle  16 NSaved=  16.
 NSaved=16 IEnMin=16 EnMin= -2795.27162593338     IErMin=16 ErrMin= 1.66D-08
 ErrMax= 1.66D-08  0.00D+00 EMaxC= 1.00D-01 BMatC= 4.16D-13 BMatP= 6.88D-13
 IDIUse=1 WtCom= 1.00D+00 WtEn= 0.00D+00
 Coeff-Com: -0.175D-07-0.277D-06-0.194D-06 0.152D-05 0.115D-04 0.220D-04
 Coeff-Com:  0.798D-04 0.124D-03 0.412D-04-0.732D-03-0.622D-02-0.133D-01
 Coeff-Com: -0.569D-02 0.625D-01 0.475D+00 0.488D+00
 Coeff:     -0.175D-07-0.277D-06-0.194D-06 0.152D-05 0.115D-04 0.220D-04
 Coeff:      0.798D-04 0.124D-03 0.412D-04-0.732D-03-0.622D-02-0.133D-01
 Coeff:     -0.569D-02 0.625D-01 0.475D+00 0.488D+00
 Gap=     0.098 Goal=   None    Shift=    0.000
 RMSDP=2.44D-09 MaxDP=3.54D-07 DE=-3.69D-10 OVMax= 1.59D-07

 Error on total polarization charges =  0.02359
 SCF Done:  E(RM06) =  -2795.27162593     A.U. after   16 cycles
            NFock= 16  Conv=0.24D-08     -V/T= 2.0100
 KE= 2.767657254219D+03 PE=-2.103620852510D+04 EE= 8.206861193961D+03
 Leave Link  502 at Wed Oct 31 10:21:59 2018, MaxMem=  1073741824 cpu:           22272.1 elap:            1399.8
 (Enter /shared/centos7/gaussian/g16/l801.exe)
 DoSCS=F DFT=T ScalE2(SS,OS)=  1.000000  1.000000
 Range of M.O.s used for correlation:     1  1141
 NBasis=  1172 NAE=   197 NBE=   197 NFC=     0 NFV=     0
 NROrb=   1141 NOA=   197 NOB=   197 NVA=   944 NVB=   944

 **** Warning!!: The largest alpha MO coefficient is  0.14005369D+03


 **** Warning!!: The smallest alpha delta epsilon is  0.97504179D-01

 Leave Link  801 at Wed Oct 31 10:21:59 2018, MaxMem=  1073741824 cpu:               2.9 elap:               0.3
 (Enter /shared/centos7/gaussian/g16/l1101.exe)
 Using compressed storage, NAtomX=    72.
 Will process     73 centers per pass.
 PrsmSu:  requested number of processors reduced to:   6 ShMem   1 Linda.
 Leave Link 1101 at Wed Oct 31 10:22:05 2018, MaxMem=  1073741824 cpu:              76.0 elap:               5.9
 (Enter /shared/centos7/gaussian/g16/l1102.exe)
 Symmetrizing basis deriv contribution to polar:
 IMax=3 JMax=2 DiffMx= 0.00D+00
 Leave Link 1102 at Wed Oct 31 10:22:05 2018, MaxMem=  1073741824 cpu:               3.4 elap:               0.3
 (Enter /shared/centos7/gaussian/g16/l1110.exe)
 Forming Gx(P) for the SCF density, NAtomX=    72.
 Integral derivatives from FoFJK, PRISM(SPDF).
 Do as many integral derivatives as possible in FoFJK.
 G2DrvN: MDV=    1073736648.
 G2DrvN: will do    25 centers at a time, making    3 passes.
 G2DrvN:  IPasSy=1 do centers    0 through   24.
 Calling FoFCou, ICntrl=  3107 FMM=T I1Cent=   0 AccDes= 0.00D+00.
 FoFJK:  IHMeth= 1 ICntrl=    3107 DoSepK=F KAlg= 0 I1Cent=           0 FoldK=F
 IRaf=         0 NMat=       1 IRICut=       1 DoRegI=T DoRafI=F ISym2E= 0 IDoP0=0 IntGTp=1.
 FoFCou: FMM=T IPFlag=           0 FMFlag=      100000 FMFlg1=        2001
         NFxFlg=           0 DoJE=F BraDBF=F KetDBF=F FulRan=T
         wScrn=  0.000000 ICntrl=      3107 IOpCl=  0 I1Cent=           0 NGrid=           0
         NMat0=    1 NMatS0=      1 NMatT0=    0 NMatD0=    1 NMtDS0=    0 NMtDT0=    0
 Symmetry not used in FoFCou.
 FMM levels:  10  Number of levels for PrismC:   9
 G2DrvN:  IPasSy=1 do centers   25 through   49.
 Calling FoFCou, ICntrl=  3107 FMM=T I1Cent=   0 AccDes= 0.00D+00.
 G2DrvN:  IPasSy=1 do centers   50 through   72.
 Calling FoFCou, ICntrl=  3107 FMM=T I1Cent=   0 AccDes= 0.00D+00.
 NEqPCM:  Using equilibrium solvation (IEInf=0, Eps=  35.6880, EpsInf=   1.8069)
 G2PCM: DoFxE=T DoFxN=T DoGrad=T DoDP/DQ/DG/TGxP=FFFF NFrqRd=   0 IEInf=0 SqF1=F DoCFld=F IF1Alg=4.
 GePol: Maximum number of non-zero 1st derivatives   =     218
 End of G2Drv F.D. properties file   721 does not exist.
 End of G2Drv F.D. properties file   722 does not exist.
 End of G2Drv F.D. properties file   788 does not exist.
 Leave Link 1110 at Wed Oct 31 12:01:56 2018, MaxMem=  1073741824 cpu:           95840.8 elap:            5990.8
 (Enter /shared/centos7/gaussian/g16/l1002.exe)
 Minotr:  Closed shell wavefunction.
          IDoAtm=11111111111111111111111111111111111111111111111111
          IDoAtm=1111111111111111111111
 NEqPCM:  Using equilibrium solvation (IEInf=0, Eps=  35.6880, EpsInf=   1.8069)
          Direct CPHF calculation.
          Differentiating once with respect to electric field.
                with respect to dipole field.
          Differentiating once with respect to nuclear coordinates.
          Requested convergence is 1.0D-08 RMS, and 1.0D-07 maximum.
          Secondary convergence is 1.0D-12 RMS, and 1.0D-12 maximum.
          NewPWx=T KeepS1=F KeepF1=F KeepIn=T MapXYZ=F SortEE=F KeepMc=T.
        22465 words used for storage of precomputed grid.
 Two-electron integrals replicated using symmetry.
          MDV=    1073741824 using IRadAn=       1.
          Solving linear equations simultaneously, MaxMat=      72.
 FoF2E skips out because all densities are zero.
 CalDSu exits because no D1Ps are significant.
 FoFJK:  IHMeth= 1 ICntrl=       0 DoSepK=F KAlg= 0 I1Cent=           0 FoldK=F
 IRaf= 680000000 NMat=      45 IRICut=       1 DoRegI=T DoRafI=F ISym2E= 2 IDoP0=0 IntGTp=1.
          There are   219 degrees of freedom in the 1st order CPHF.  IDoFFX=6 NUNeed=     3.
    219 vectors produced by pass  0 Test12= 1.86D-13 1.00D-09 XBig12= 2.59D+03 3.94D+01.
 AX will form    45 AO Fock derivatives at one time.
    219 vectors produced by pass  1 Test12= 1.86D-13 1.00D-09 XBig12= 4.41D+02 4.82D+00.
    217 vectors produced by pass  2 Test12= 1.86D-13 1.00D-09 XBig12= 9.32D+00 5.28D-01.
    216 vectors produced by pass  3 Test12= 1.86D-13 1.00D-09 XBig12= 1.02D-01 2.59D-02.
    216 vectors produced by pass  4 Test12= 1.86D-13 1.00D-09 XBig12= 7.37D-04 1.30D-03.
    216 vectors produced by pass  5 Test12= 1.86D-13 1.00D-09 XBig12= 3.71D-06 1.15D-04.
    212 vectors produced by pass  6 Test12= 1.86D-13 1.00D-09 XBig12= 1.33D-08 5.53D-06.
    155 vectors produced by pass  7 Test12= 1.86D-13 1.00D-09 XBig12= 3.51D-11 3.35D-07.
    147 vectors produced by pass  8 Test12= 1.86D-13 1.00D-09 XBig12= 1.70D-13 1.60D-08.
    147 vectors produced by pass  9 Test12= 1.86D-13 1.00D-09 XBig12= 2.97D-13 1.83D-08.
    147 vectors produced by pass 10 Test12= 1.86D-13 1.00D-09 XBig12= 3.75D-13 2.40D-08.
    126 vectors produced by pass 11 Test12= 1.86D-13 1.00D-09 XBig12= 1.61D-13 1.42D-08.
    124 vectors produced by pass 12 Test12= 1.86D-13 1.00D-09 XBig12= 3.48D-13 1.98D-08.
    123 vectors produced by pass 13 Test12= 1.86D-13 1.00D-09 XBig12= 1.77D-13 1.41D-08.
    122 vectors produced by pass 14 Test12= 1.86D-13 1.00D-09 XBig12= 2.14D-13 1.59D-08.
    121 vectors produced by pass 15 Test12= 1.86D-13 1.00D-09 XBig12= 2.75D-13 1.64D-08.
     95 vectors produced by pass 16 Test12= 1.86D-13 1.00D-09 XBig12= 1.45D-13 1.51D-08.
     94 vectors produced by pass 17 Test12= 1.86D-13 1.00D-09 XBig12= 3.36D-13 2.20D-08.
     93 vectors produced by pass 18 Test12= 1.86D-13 1.00D-09 XBig12= 1.61D-13 1.47D-08.
     90 vectors produced by pass 19 Test12= 1.86D-13 1.00D-09 XBig12= 1.10D-13 9.54D-09.
     90 vectors produced by pass 20 Test12= 1.86D-13 1.00D-09 XBig12= 1.61D-13 1.13D-08.
     80 vectors produced by pass 21 Test12= 1.86D-13 1.00D-09 XBig12= 1.24D-13 1.07D-08.
     80 vectors produced by pass 22 Test12= 1.86D-13 1.00D-09 XBig12= 1.42D-13 1.04D-08.
     77 vectors produced by pass 23 Test12= 1.86D-13 1.00D-09 XBig12= 7.64D-14 9.28D-09.
     77 vectors produced by pass 24 Test12= 1.86D-13 1.00D-09 XBig12= 9.06D-14 8.46D-09.
     75 vectors produced by pass 25 Test12= 1.86D-13 1.00D-09 XBig12= 8.62D-14 1.04D-08.
     74 vectors produced by pass 26 Test12= 1.86D-13 1.00D-09 XBig12= 8.97D-14 8.55D-09.
     61 vectors produced by pass 27 Test12= 1.86D-13 1.00D-09 XBig12= 5.47D-14 7.01D-09.
     57 vectors produced by pass 28 Test12= 1.86D-13 1.00D-09 XBig12= 6.16D-14 6.47D-09.
     56 vectors produced by pass 29 Test12= 1.86D-13 1.00D-09 XBig12= 5.45D-14 6.41D-09.
     54 vectors produced by pass 30 Test12= 1.86D-13 1.00D-09 XBig12= 7.46D-14 7.67D-09.
     54 vectors produced by pass 31 Test12= 1.86D-13 1.00D-09 XBig12= 5.40D-14 6.69D-09.
     54 vectors produced by pass 32 Test12= 1.86D-13 1.00D-09 XBig12= 5.33D-14 6.25D-09.
     52 vectors produced by pass 33 Test12= 1.86D-13 1.00D-09 XBig12= 5.50D-14 7.10D-09.
     47 vectors produced by pass 34 Test12= 1.86D-13 1.00D-09 XBig12= 3.61D-14 6.54D-09.
     42 vectors produced by pass 35 Test12= 1.86D-13 1.00D-09 XBig12= 3.56D-14 5.18D-09.
     40 vectors produced by pass 36 Test12= 1.86D-13 1.00D-09 XBig12= 4.70D-14 5.80D-09.
     35 vectors produced by pass 37 Test12= 1.86D-13 1.00D-09 XBig12= 2.71D-14 4.04D-09.
     34 vectors produced by pass 38 Test12= 1.86D-13 1.00D-09 XBig12= 2.52D-14 4.09D-09.
     34 vectors produced by pass 39 Test12= 1.86D-13 1.00D-09 XBig12= 4.35D-14 6.10D-09.
     29 vectors produced by pass 40 Test12= 1.86D-13 1.00D-09 XBig12= 2.19D-14 4.04D-09.
     24 vectors produced by pass 41 Test12= 1.86D-13 1.00D-09 XBig12= 1.96D-14 3.59D-09.
     24 vectors produced by pass 42 Test12= 1.86D-13 1.00D-09 XBig12= 2.72D-14 4.79D-09.
     24 vectors produced by pass 43 Test12= 1.86D-13 1.00D-09 XBig12= 2.26D-14 3.88D-09.
     24 vectors produced by pass 44 Test12= 1.86D-13 1.00D-09 XBig12= 2.13D-14 3.93D-09.
     24 vectors produced by pass 45 Test12= 1.86D-13 1.00D-09 XBig12= 3.57D-14 5.41D-09.
     24 vectors produced by pass 46 Test12= 1.86D-13 1.00D-09 XBig12= 3.10D-14 4.39D-09.
     23 vectors produced by pass 47 Test12= 1.86D-13 1.00D-09 XBig12= 1.96D-14 3.22D-09.
     22 vectors produced by pass 48 Test12= 1.86D-13 1.00D-09 XBig12= 2.03D-14 3.42D-09.
     22 vectors produced by pass 49 Test12= 1.86D-13 1.00D-09 XBig12= 2.48D-14 4.28D-09.
     21 vectors produced by pass 50 Test12= 1.86D-13 1.00D-09 XBig12= 2.30D-14 3.72D-09.
     21 vectors produced by pass 51 Test12= 1.86D-13 1.00D-09 XBig12= 3.57D-14 4.59D-09.
     19 vectors produced by pass 52 Test12= 1.86D-13 1.00D-09 XBig12= 2.24D-14 4.10D-09.
     19 vectors produced by pass 53 Test12= 1.86D-13 1.00D-09 XBig12= 2.75D-14 4.21D-09.
     19 vectors produced by pass 54 Test12= 1.86D-13 1.00D-09 XBig12= 2.41D-14 3.65D-09.
     16 vectors produced by pass 55 Test12= 1.86D-13 1.00D-09 XBig12= 2.12D-14 3.59D-09.
     14 vectors produced by pass 56 Test12= 1.86D-13 1.00D-09 XBig12= 2.02D-14 3.36D-09.
     10 vectors produced by pass 57 Test12= 1.86D-13 1.00D-09 XBig12= 1.48D-14 3.15D-09.
     10 vectors produced by pass 58 Test12= 1.86D-13 1.00D-09 XBig12= 3.24D-14 4.16D-09.
     10 vectors produced by pass 59 Test12= 1.86D-13 1.00D-09 XBig12= 3.63D-14 4.78D-09.
     10 vectors produced by pass 60 Test12= 1.86D-13 1.00D-09 XBig12= 2.08D-14 3.39D-09.
      8 vectors produced by pass 61 Test12= 1.86D-13 1.00D-09 XBig12= 1.63D-14 3.23D-09.
      8 vectors produced by pass 62 Test12= 1.86D-13 1.00D-09 XBig12= 2.25D-14 3.81D-09.
      8 vectors produced by pass 63 Test12= 1.86D-13 1.00D-09 XBig12= 1.91D-14 3.29D-09.
      8 vectors produced by pass 64 Test12= 1.86D-13 1.00D-09 XBig12= 2.49D-14 3.92D-09.
      8 vectors produced by pass 65 Test12= 1.86D-13 1.00D-09 XBig12= 4.27D-14 5.27D-09.
      8 vectors produced by pass 66 Test12= 1.86D-13 1.00D-09 XBig12= 1.84D-14 3.19D-09.
      8 vectors produced by pass 67 Test12= 1.86D-13 1.00D-09 XBig12= 1.44D-14 3.19D-09.
      7 vectors produced by pass 68 Test12= 1.86D-13 1.00D-09 XBig12= 7.26D-15 2.51D-09.
      7 vectors produced by pass 69 Test12= 1.86D-13 1.00D-09 XBig12= 1.24D-14 2.80D-09.
      7 vectors produced by pass 70 Test12= 1.86D-13 1.00D-09 XBig12= 2.63D-14 3.91D-09.
      7 vectors produced by pass 71 Test12= 1.86D-13 1.00D-09 XBig12= 1.23D-14 3.06D-09.
      7 vectors produced by pass 72 Test12= 1.86D-13 1.00D-09 XBig12= 1.27D-14 2.86D-09.
      7 vectors produced by pass 73 Test12= 1.86D-13 1.00D-09 XBig12= 2.31D-14 4.34D-09.
      7 vectors produced by pass 74 Test12= 1.86D-13 1.00D-09 XBig12= 8.79D-15 2.47D-09.
      7 vectors produced by pass 75 Test12= 1.86D-13 1.00D-09 XBig12= 1.86D-14 3.37D-09.
      7 vectors produced by pass 76 Test12= 1.86D-13 1.00D-09 XBig12= 1.49D-14 2.90D-09.
      7 vectors produced by pass 77 Test12= 1.86D-13 1.00D-09 XBig12= 1.30D-14 2.72D-09.
      7 vectors produced by pass 78 Test12= 1.86D-13 1.00D-09 XBig12= 6.24D-15 1.90D-09.
      7 vectors produced by pass 79 Test12= 1.86D-13 1.00D-09 XBig12= 1.44D-14 2.78D-09.
      7 vectors produced by pass 80 Test12= 1.86D-13 1.00D-09 XBig12= 1.16D-14 2.63D-09.
      7 vectors produced by pass 81 Test12= 1.86D-13 1.00D-09 XBig12= 2.75D-14 4.59D-09.
      7 vectors produced by pass 82 Test12= 1.86D-13 1.00D-09 XBig12= 1.25D-14 3.38D-09.
      7 vectors produced by pass 83 Test12= 1.86D-13 1.00D-09 XBig12= 1.82D-14 3.45D-09.
      7 vectors produced by pass 84 Test12= 1.86D-13 1.00D-09 XBig12= 1.64D-14 3.37D-09.
      7 vectors produced by pass 85 Test12= 1.86D-13 1.00D-09 XBig12= 1.13D-14 2.49D-09.
      7 vectors produced by pass 86 Test12= 1.86D-13 1.00D-09 XBig12= 1.57D-14 2.97D-09.
      7 vectors produced by pass 87 Test12= 1.86D-13 1.00D-09 XBig12= 1.18D-14 2.79D-09.
      7 vectors produced by pass 88 Test12= 1.86D-13 1.00D-09 XBig12= 1.66D-14 3.29D-09.
      7 vectors produced by pass 89 Test12= 1.86D-13 1.00D-09 XBig12= 1.34D-14 3.14D-09.
      7 vectors produced by pass 90 Test12= 1.86D-13 1.00D-09 XBig12= 1.32D-14 2.71D-09.
      7 vectors produced by pass 91 Test12= 1.86D-13 1.00D-09 XBig12= 1.24D-14 2.99D-09.
      7 vectors produced by pass 92 Test12= 1.86D-13 1.00D-09 XBig12= 1.72D-14 3.48D-09.
      6 vectors produced by pass 93 Test12= 1.86D-13 1.00D-09 XBig12= 7.71D-15 2.41D-09.
      6 vectors produced by pass 94 Test12= 1.86D-13 1.00D-09 XBig12= 1.26D-14 2.59D-09.
      6 vectors produced by pass 95 Test12= 1.86D-13 1.00D-09 XBig12= 1.53D-14 3.13D-09.
      6 vectors produced by pass 96 Test12= 1.86D-13 1.00D-09 XBig12= 8.94D-15 2.77D-09.
      6 vectors produced by pass 97 Test12= 1.86D-13 1.00D-09 XBig12= 1.02D-14 2.71D-09.
      6 vectors produced by pass 98 Test12= 1.86D-13 1.00D-09 XBig12= 1.77D-14 3.63D-09.
      6 vectors produced by pass 99 Test12= 1.86D-13 1.00D-09 XBig12= 1.30D-14 3.43D-09.
      6 vectors produced by pass100 Test12= 1.86D-13 1.00D-09 XBig12= 1.67D-14 3.40D-09.
      6 vectors produced by pass101 Test12= 1.86D-13 1.00D-09 XBig12= 9.24D-15 2.33D-09.
      6 vectors produced by pass102 Test12= 1.86D-13 1.00D-09 XBig12= 1.14D-14 2.77D-09.
      6 vectors produced by pass103 Test12= 1.86D-13 1.00D-09 XBig12= 7.18D-15 2.06D-09.
      6 vectors produced by pass104 Test12= 1.86D-13 1.00D-09 XBig12= 1.41D-14 2.95D-09.
      6 vectors produced by pass105 Test12= 1.86D-13 1.00D-09 XBig12= 1.04D-14 3.07D-09.
      6 vectors produced by pass106 Test12= 1.86D-13 1.00D-09 XBig12= 1.08D-14 2.48D-09.
      6 vectors produced by pass107 Test12= 1.86D-13 1.00D-09 XBig12= 9.53D-15 2.39D-09.
      6 vectors produced by pass108 Test12= 1.86D-13 1.00D-09 XBig12= 1.48D-14 3.07D-09.
      6 vectors produced by pass109 Test12= 1.86D-13 1.00D-09 XBig12= 7.02D-15 2.22D-09.
      6 vectors produced by pass110 Test12= 1.86D-13 1.00D-09 XBig12= 1.15D-14 2.41D-09.
      6 vectors produced by pass111 Test12= 1.86D-13 1.00D-09 XBig12= 1.37D-14 2.96D-09.
      6 vectors produced by pass112 Test12= 1.86D-13 1.00D-09 XBig12= 1.06D-14 2.60D-09.
      6 vectors produced by pass113 Test12= 1.86D-13 1.00D-09 XBig12= 1.11D-14 2.51D-09.
      6 vectors produced by pass114 Test12= 1.86D-13 1.00D-09 XBig12= 9.00D-15 2.49D-09.
      6 vectors produced by pass115 Test12= 1.86D-13 1.00D-09 XBig12= 9.16D-15 2.28D-09.
      6 vectors produced by pass116 Test12= 1.86D-13 1.00D-09 XBig12= 6.31D-15 1.94D-09.
      6 vectors produced by pass117 Test12= 1.86D-13 1.00D-09 XBig12= 1.15D-14 2.52D-09.
      6 vectors produced by pass118 Test12= 1.86D-13 1.00D-09 XBig12= 1.47D-14 2.99D-09.
      6 vectors produced by pass119 Test12= 1.86D-13 1.00D-09 XBig12= 1.22D-14 2.86D-09.
      6 vectors produced by pass120 Test12= 1.86D-13 1.00D-09 XBig12= 1.78D-14 3.19D-09.
      6 vectors produced by pass121 Test12= 1.86D-13 1.00D-09 XBig12= 1.35D-14 3.10D-09.
      6 vectors produced by pass122 Test12= 1.86D-13 1.00D-09 XBig12= 1.46D-14 3.23D-09.
      6 vectors produced by pass123 Test12= 1.86D-13 1.00D-09 XBig12= 9.04D-15 2.30D-09.
      6 vectors produced by pass124 Test12= 1.86D-13 1.00D-09 XBig12= 9.89D-15 2.51D-09.
      6 vectors produced by pass125 Test12= 1.86D-13 1.00D-09 XBig12= 1.48D-14 2.92D-09.
      6 vectors produced by pass126 Test12= 1.86D-13 1.00D-09 XBig12= 1.34D-14 2.80D-09.
      5 vectors produced by pass127 Test12= 1.86D-13 1.00D-09 XBig12= 8.73D-15 2.65D-09.
      5 vectors produced by pass128 Test12= 1.86D-13 1.00D-09 XBig12= 7.93D-15 2.15D-09.
      5 vectors produced by pass129 Test12= 1.86D-13 1.00D-09 XBig12= 1.34D-14 3.24D-09.
      5 vectors produced by pass130 Test12= 1.86D-13 1.00D-09 XBig12= 1.53D-14 3.03D-09.
      5 vectors produced by pass131 Test12= 1.86D-13 1.00D-09 XBig12= 9.09D-15 2.22D-09.
      5 vectors produced by pass132 Test12= 1.86D-13 1.00D-09 XBig12= 8.55D-15 2.20D-09.
      5 vectors produced by pass133 Test12= 1.86D-13 1.00D-09 XBig12= 2.08D-14 3.77D-09.
      5 vectors produced by pass134 Test12= 1.86D-13 1.00D-09 XBig12= 1.17D-14 2.43D-09.
      5 vectors produced by pass135 Test12= 1.86D-13 1.00D-09 XBig12= 1.02D-14 2.99D-09.
      5 vectors produced by pass136 Test12= 1.86D-13 1.00D-09 XBig12= 1.03D-14 2.37D-09.
      4 vectors produced by pass137 Test12= 1.86D-13 1.00D-09 XBig12= 6.09D-15 1.85D-09.
      4 vectors produced by pass138 Test12= 1.86D-13 1.00D-09 XBig12= 9.05D-15 2.23D-09.
      4 vectors produced by pass139 Test12= 1.86D-13 1.00D-09 XBig12= 2.14D-14 3.44D-09.
      4 vectors produced by pass140 Test12= 1.86D-13 1.00D-09 XBig12= 6.14D-15 1.98D-09.
      4 vectors produced by pass141 Test12= 1.86D-13 1.00D-09 XBig12= 8.99D-15 2.34D-09.
      4 vectors produced by pass142 Test12= 1.86D-13 1.00D-09 XBig12= 1.79D-14 3.08D-09.
      4 vectors produced by pass143 Test12= 1.86D-13 1.00D-09 XBig12= 1.32D-14 3.29D-09.
      4 vectors produced by pass144 Test12= 1.86D-13 1.00D-09 XBig12= 1.12D-14 2.87D-09.
      4 vectors produced by pass145 Test12= 1.86D-13 1.00D-09 XBig12= 7.12D-15 2.11D-09.
      4 vectors produced by pass146 Test12= 1.86D-13 1.00D-09 XBig12= 1.22D-14 2.54D-09.
      4 vectors produced by pass147 Test12= 1.86D-13 1.00D-09 XBig12= 7.53D-15 1.90D-09.
      4 vectors produced by pass148 Test12= 1.86D-13 1.00D-09 XBig12= 1.46D-14 2.86D-09.
      4 vectors produced by pass149 Test12= 1.86D-13 1.00D-09 XBig12= 7.61D-15 2.32D-09.
      4 vectors produced by pass150 Test12= 1.86D-13 1.00D-09 XBig12= 1.28D-14 2.76D-09.
      4 vectors produced by pass151 Test12= 1.86D-13 1.00D-09 XBig12= 1.02D-14 2.23D-09.
      4 vectors produced by pass152 Test12= 1.86D-13 1.00D-09 XBig12= 1.04D-14 2.83D-09.
      4 vectors produced by pass153 Test12= 1.86D-13 1.00D-09 XBig12= 1.35D-14 2.65D-09.
      4 vectors produced by pass154 Test12= 1.86D-13 1.00D-09 XBig12= 1.08D-14 2.51D-09.
      4 vectors produced by pass155 Test12= 1.86D-13 1.00D-09 XBig12= 9.79D-15 2.28D-09.
      4 vectors produced by pass156 Test12= 1.86D-13 1.00D-09 XBig12= 6.63D-15 2.00D-09.
      4 vectors produced by pass157 Test12= 1.86D-13 1.00D-09 XBig12= 1.10D-14 2.68D-09.
      4 vectors produced by pass158 Test12= 1.86D-13 1.00D-09 XBig12= 7.49D-15 2.13D-09.
      4 vectors produced by pass159 Test12= 1.86D-13 1.00D-09 XBig12= 1.25D-14 2.72D-09.
      4 vectors produced by pass160 Test12= 1.86D-13 1.00D-09 XBig12= 5.15D-15 1.74D-09.
      4 vectors produced by pass161 Test12= 1.86D-13 1.00D-09 XBig12= 1.20D-14 2.83D-09.
      4 vectors produced by pass162 Test12= 1.86D-13 1.00D-09 XBig12= 7.13D-15 1.93D-09.
      4 vectors produced by pass163 Test12= 1.86D-13 1.00D-09 XBig12= 7.42D-15 1.95D-09.
      4 vectors produced by pass164 Test12= 1.86D-13 1.00D-09 XBig12= 7.07D-15 2.25D-09.
      4 vectors produced by pass165 Test12= 1.86D-13 1.00D-09 XBig12= 1.04D-14 2.46D-09.
      4 vectors produced by pass166 Test12= 1.86D-13 1.00D-09 XBig12= 9.95D-15 2.45D-09.
      4 vectors produced by pass167 Test12= 1.86D-13 1.00D-09 XBig12= 1.23D-14 2.54D-09.
      4 vectors produced by pass168 Test12= 1.86D-13 1.00D-09 XBig12= 9.49D-15 2.33D-09.
      4 vectors produced by pass169 Test12= 1.86D-13 1.00D-09 XBig12= 1.14D-14 2.48D-09.
      4 vectors produced by pass170 Test12= 1.86D-13 1.00D-09 XBig12= 6.39D-15 1.77D-09.
      4 vectors produced by pass171 Test12= 1.86D-13 1.00D-09 XBig12= 9.37D-15 2.72D-09.
      4 vectors produced by pass172 Test12= 1.86D-13 1.00D-09 XBig12= 1.56D-14 2.81D-09.
      3 vectors produced by pass173 Test12= 1.86D-13 1.00D-09 XBig12= 7.44D-15 2.13D-09.
      3 vectors produced by pass174 Test12= 1.86D-13 1.00D-09 XBig12= 7.66D-15 2.35D-09.
      3 vectors produced by pass175 Test12= 1.86D-13 1.00D-09 XBig12= 1.10D-14 2.50D-09.
      3 vectors produced by pass176 Test12= 1.86D-13 1.00D-09 XBig12= 1.85D-14 3.66D-09.
      3 vectors produced by pass177 Test12= 1.86D-13 1.00D-09 XBig12= 9.15D-15 2.25D-09.
      3 vectors produced by pass178 Test12= 1.86D-13 1.00D-09 XBig12= 8.11D-15 2.32D-09.
      3 vectors produced by pass179 Test12= 1.86D-13 1.00D-09 XBig12= 7.32D-15 2.42D-09.
      3 vectors produced by pass180 Test12= 1.86D-13 1.00D-09 XBig12= 9.60D-15 2.29D-09.
      3 vectors produced by pass181 Test12= 1.86D-13 1.00D-09 XBig12= 1.20D-14 2.92D-09.
      3 vectors produced by pass182 Test12= 1.86D-13 1.00D-09 XBig12= 7.50D-15 1.81D-09.
      3 vectors produced by pass183 Test12= 1.86D-13 1.00D-09 XBig12= 1.05D-14 2.71D-09.
      3 vectors produced by pass184 Test12= 1.86D-13 1.00D-09 XBig12= 1.72D-14 3.17D-09.
      3 vectors produced by pass185 Test12= 1.86D-13 1.00D-09 XBig12= 1.10D-14 2.51D-09.
      2 vectors produced by pass186 Test12= 1.86D-13 1.00D-09 XBig12= 5.60D-15 1.67D-09.
 InvSVY:  IOpt=1 It=  1 EMax= 3.20D-14
 Solved reduced A of dimension  5351 with   219 vectors.
 FullF1:  Do perturbations      1 to       3.
 Isotropic polarizability for W=    0.000000     1101.40 Bohr**3.
 End of Minotr F.D. properties file   721 does not exist.
 End of Minotr F.D. properties file   722 does not exist.
 End of Minotr F.D. properties file   788 does not exist.
 Leave Link 1002 at Thu Nov  1 05:46:16 2018, MaxMem=  1073741824 cpu:         1020346.2 elap:           63859.7
 (Enter /shared/centos7/gaussian/g16/l601.exe)
 Copying SCF densities to generalized density rwf, IOpCl= 0 IROHF=0.

 **********************************************************************

            Population analysis using the SCF density.

 **********************************************************************

 Orbital symmetries:
       Occupied  (A) (A) (A) (A) (A) (A) (A) (A) (A) (A) (A) (A)
                 (A) (A) (A) (A) (A) (A) (A) (A) (A) (A) (A) (A)
                 (A) (A) (A) (A) (A) (A) (A) (A) (A) (A) (A) (A)
                 (A) (A) (A) (A) (A) (A) (A) (A) (A) (A) (A) (A)
                 (A) (A) (A) (A) (A) (A) (A) (A) (A) (A) (A) (A)
                 (A) (A) (A) (A) (A) (A) (A) (A) (A) (A) (A) (A)
                 (A) (A) (A) (A) (A) (A) (A) (A) (A) (A) (A) (A)
                 (A) (A) (A) (A) (A) (A) (A) (A) (A) (A) (A) (A)
                 (A) (A) (A) (A) (A) (A) (A) (A) (A) (A) (A) (A)
                 (A) (A) (A) (A) (A) (A) (A) (A) (A) (A) (A) (A)
                 (A) (A) (A) (A) (A) (A) (A) (A) (A) (A) (A) (A)
                 (A) (A) (A) (A) (A) (A) (A) (A) (A) (A) (A) (A)
                 (A) (A) (A) (A) (A) (A) (A) (A) (A) (A) (A) (A)
                 (A) (A) (A) (A) (A) (A) (A) (A) (A) (A) (A) (A)
                 (A) (A) (A) (A) (A) (A) (A) (A) (A) (A) (A) (A)
                 (A) (A) (A) (A) (A) (A) (A) (A) (A) (A) (A) (A)
                 (A) (A) (A) (A) (A)
       Virtual   (A) (A) (A) (A) (A) (A) (A) (A) (A) (A) (A) (A)
                 (A) (A) (A) (A) (A) (A) (A) (A) (A) (A) (A) (A)
                 (A) (A) (A) (A) (A) (A) (A) (A) (A) (A) (A) (A)
                 (A) (A) (A) (A) (A) (A) (A) (A) (A) (A) (A) (A)
                 (A) (A) (A) (A) (A) (A) (A) (A) (A) (A) (A) (A)
                 (A) (A) (A) (A) (A) (A) (A) (A) (A) (A) (A) (A)
                 (A) (A) (A) (A) (A) (A) (A) (A) (A) (A) (A) (A)
                 (A) (A) (A) (A) (A) (A) (A) (A) (A) (A) (A) (A)
                 (A) (A) (A) (A) (A) (A) (A) (A) (A) (A) (A) (A)
                 (A) (A) (A) (A) (A) (A) (A) (A) (A) (A) (A) (A)
                 (A) (A) (A) (A) (A) (A) (A) (A) (A) (A) (A) (A)
                 (A) (A) (A) (A) (A) (A) (A) (A) (A) (A) (A) (A)
                 (A) (A) (A) (A) (A) (A) (A) (A) (A) (A) (A) (A)
                 (A) (A) (A) (A) (A) (A) (A) (A) (A) (A) (A) (A)
                 (A) (A) (A) (A) (A) (A) (A) (A) (A) (A) (A) (A)
                 (A) (A) (A) (A) (A) (A) (A) (A) (A) (A) (A) (A)
                 (A) (A) (A) (A) (A) (A) (A) (A) (A) (A) (A) (A)
                 (A) (A) (A) (A) (A) (A) (A) (A) (A) (A) (A) (A)
                 (A) (A) (A) (A) (A) (A) (A) (A) (A) (A) (A) (A)
                 (A) (A) (A) (A) (A) (A) (A) (A) (A) (A) (A) (A)
                 (A) (A) (A) (A) (A) (A) (A) (A) (A) (A) (A) (A)
                 (A) (A) (A) (A) (A) (A) (A) (A) (A) (A) (A) (A)
                 (A) (A) (A) (A) (A) (A) (A) (A) (A) (A) (A) (A)
                 (A) (A) (A) (A) (A) (A) (A) (A) (A) (A) (A) (A)
                 (A) (A) (A) (A) (A) (A) (A) (A) (A) (A) (A) (A)
                 (A) (A) (A) (A) (A) (A) (A) (A) (A) (A) (A) (A)
                 (A) (A) (A) (A) (A) (A) (A) (A) (A) (A) (A) (A)
                 (A) (A) (A) (A) (A) (A) (A) (A) (A) (A) (A) (A)
                 (A) (A) (A) (A) (A) (A) (A) (A) (A) (A) (A) (A)
                 (A) (A) (A) (A) (A) (A) (A) (A) (A) (A) (A) (A)
                 (A) (A) (A) (A) (A) (A) (A) (A) (A) (A) (A) (A)
                 (A) (A) (A) (A) (A) (A) (A) (A) (A) (A) (A) (A)
                 (A) (A) (A) (A) (A) (A) (A) (A) (A) (A) (A) (A)
                 (A) (A) (A) (A) (A) (A) (A) (A) (A) (A) (A) (A)
                 (A) (A) (A) (A) (A) (A) (A) (A) (A) (A) (A) (A)
                 (A) (A) (A) (A) (A) (A) (A) (A) (A) (A) (A) (A)
                 (A) (A) (A) (A) (A) (A) (A) (A) (A) (A) (A) (A)
                 (A) (A) (A) (A) (A) (A) (A) (A) (A) (A) (A) (A)
                 (A) (A) (A) (A) (A) (A) (A) (A) (A) (A) (A) (A)
                 (A) (A) (A) (A) (A) (A) (A) (A) (A) (A) (A) (A)
                 (A) (A) (A) (A) (A) (A) (A) (A) (A) (A) (A) (A)
                 (A) (A) (A) (A) (A) (A) (A) (A) (A) (A) (A) (A)
                 (A) (A) (A) (A) (A) (A) (A) (A) (A) (A) (A) (A)
                 (A) (A) (A) (A) (A) (A) (A) (A) (A) (A) (A) (A)
                 (A) (A) (A) (A) (A) (A) (A) (A) (A) (A) (A) (A)
                 (A) (A) (A) (A) (A) (A) (A) (A) (A) (A) (A) (A)
                 (A) (A) (A) (A) (A) (A) (A) (A) (A) (A) (A) (A)
                 (A) (A) (A) (A) (A) (A) (A) (A) (A) (A) (A) (A)
                 (A) (A) (A) (A) (A) (A) (A) (A) (A) (A) (A) (A)
                 (A) (A) (A) (A) (A) (A) (A) (A) (A) (A) (A) (A)
                 (A) (A) (A) (A) (A) (A) (A) (A) (A) (A) (A) (A)
                 (A) (A) (A) (A) (A) (A) (A) (A) (A) (A) (A) (A)
                 (A) (A) (A) (A) (A) (A) (A) (A) (A) (A) (A) (A)
                 (A) (A) (A) (A) (A) (A) (A) (A) (A) (A) (A) (A)
                 (A) (A) (A) (A) (A) (A) (A) (A) (A) (A) (A) (A)
                 (A) (A) (A) (A) (A) (A) (A) (A) (A) (A) (A) (A)
                 (A) (A) (A) (A) (A) (A) (A) (A) (A) (A) (A) (A)
                 (A) (A) (A) (A) (A) (A) (A) (A) (A) (A) (A) (A)
                 (A) (A) (A) (A) (A) (A) (A) (A) (A) (A) (A) (A)
                 (A) (A) (A) (A) (A) (A) (A) (A) (A) (A) (A) (A)
                 (A) (A) (A) (A) (A) (A) (A) (A) (A) (A) (A) (A)
                 (A) (A) (A) (A) (A) (A) (A) (A) (A) (A) (A) (A)
                 (A) (A) (A) (A) (A) (A) (A) (A) (A) (A) (A) (A)
                 (A) (A) (A) (A) (A) (A) (A) (A) (A) (A) (A) (A)
                 (A) (A) (A) (A) (A) (A) (A) (A) (A) (A) (A) (A)
                 (A) (A) (A) (A) (A) (A) (A) (A) (A) (A) (A) (A)
                 (A) (A) (A) (A) (A) (A) (A) (A) (A) (A) (A) (A)
                 (A) (A) (A) (A) (A) (A) (A) (A) (A) (A) (A) (A)
                 (A) (A) (A) (A) (A) (A) (A) (A) (A) (A) (A) (A)
                 (A) (A) (A) (A) (A) (A) (A) (A) (A) (A) (A) (A)
                 (A) (A) (A) (A) (A) (A) (A) (A) (A) (A) (A) (A)
                 (A) (A) (A) (A) (A) (A) (A) (A) (A) (A) (A) (A)
                 (A) (A) (A) (A) (A) (A) (A) (A) (A) (A) (A) (A)
                 (A) (A) (A) (A) (A) (A) (A) (A) (A) (A) (A) (A)
                 (A) (A) (A) (A) (A) (A) (A) (A) (A) (A) (A) (A)
                 (A) (A) (A) (A) (A) (A) (A) (A) (A) (A) (A) (A)
                 (A) (A) (A) (A) (A) (A) (A) (A) (A) (A) (A) (A)
                 (A) (A) (A) (A) (A) (A) (A) (A) (A) (A) (A) (A)
                 (A) (A) (A) (A) (A) (A) (A) (A)
 The electronic state is 1-A.
 Alpha  occ. eigenvalues --  -19.36441 -19.36441 -19.36226 -19.36226 -19.30675
 Alpha  occ. eigenvalues --  -19.30675 -19.30591 -19.30591 -19.30351 -19.30351
 Alpha  occ. eigenvalues --  -19.30266 -19.30266 -14.68948 -14.68948 -14.68871
 Alpha  occ. eigenvalues --  -14.68871 -14.45759 -14.45758 -14.45749 -14.45749
 Alpha  occ. eigenvalues --  -10.39854 -10.39853 -10.39821 -10.39821 -10.37351
 Alpha  occ. eigenvalues --  -10.37351 -10.37288 -10.37288 -10.36580 -10.36580
 Alpha  occ. eigenvalues --  -10.36519 -10.36519 -10.31550 -10.31549 -10.31423
 Alpha  occ. eigenvalues --  -10.31423 -10.30930 -10.30910 -10.30899 -10.30859
 Alpha  occ. eigenvalues --  -10.30845 -10.30825 -10.30571 -10.30570 -10.30519
 Alpha  occ. eigenvalues --  -10.30519 -10.30472 -10.30472 -10.29948 -10.29948
 Alpha  occ. eigenvalues --  -10.29877 -10.29877 -10.28500 -10.28500 -10.28251
 Alpha  occ. eigenvalues --  -10.28251 -10.28116 -10.28116  -1.28661  -1.28660
 Alpha  occ. eigenvalues --   -1.28571  -1.28570  -1.21178  -1.21178  -1.21032
 Alpha  occ. eigenvalues --   -1.21032  -1.11386  -1.11386  -1.11295  -1.11295
 Alpha  occ. eigenvalues --   -0.99691  -0.99689  -0.99628  -0.99628  -0.95090
 Alpha  occ. eigenvalues --   -0.93190  -0.90479  -0.89624  -0.89554  -0.87232
 Alpha  occ. eigenvalues --   -0.87187  -0.86151  -0.85647  -0.85057  -0.82635
 Alpha  occ. eigenvalues --   -0.82242  -0.81423  -0.79970  -0.78293  -0.78044
 Alpha  occ. eigenvalues --   -0.77932  -0.76681  -0.76608  -0.76087  -0.74165
 Alpha  occ. eigenvalues --   -0.70861  -0.70304  -0.68470  -0.67745  -0.67061
 Alpha  occ. eigenvalues --   -0.66625  -0.66526  -0.66313  -0.65994  -0.65579
 Alpha  occ. eigenvalues --   -0.64582  -0.63426  -0.63367  -0.62833  -0.62091
 Alpha  occ. eigenvalues --   -0.61712  -0.60987  -0.60364  -0.60115  -0.59092
 Alpha  occ. eigenvalues --   -0.59072  -0.59006  -0.59005  -0.57399  -0.57132
 Alpha  occ. eigenvalues --   -0.56548  -0.56393  -0.56239  -0.56207  -0.55775
 Alpha  occ. eigenvalues --   -0.55229  -0.55101  -0.55018  -0.54303  -0.54131
 Alpha  occ. eigenvalues --   -0.54016  -0.53826  -0.53677  -0.53131  -0.52949
 Alpha  occ. eigenvalues --   -0.52461  -0.52195  -0.51668  -0.51230  -0.49091
 Alpha  occ. eigenvalues --   -0.48175  -0.47870  -0.47258  -0.47207  -0.46809
 Alpha  occ. eigenvalues --   -0.46681  -0.46537  -0.46136  -0.46061  -0.45675
 Alpha  occ. eigenvalues --   -0.45501  -0.44491  -0.44292  -0.43490  -0.43366
 Alpha  occ. eigenvalues --   -0.42839  -0.42160  -0.41015  -0.40927  -0.40299
 Alpha  occ. eigenvalues --   -0.39767  -0.39147  -0.38783  -0.38667  -0.38277
 Alpha  occ. eigenvalues --   -0.37993  -0.37752  -0.37216  -0.36446  -0.36179
 Alpha  occ. eigenvalues --   -0.36175  -0.36110  -0.36106  -0.35998  -0.35920
 Alpha  occ. eigenvalues --   -0.35800  -0.35789  -0.35778  -0.35719  -0.35705
 Alpha  occ. eigenvalues --   -0.34880  -0.34484  -0.34038  -0.34008  -0.33987
 Alpha  occ. eigenvalues --   -0.33920  -0.33890  -0.33330  -0.33037  -0.30182
 Alpha  occ. eigenvalues --   -0.29913  -0.29746  -0.28022  -0.27709  -0.27327
 Alpha  occ. eigenvalues --   -0.26065  -0.21887
 Alpha virt. eigenvalues --   -0.12137  -0.11009  -0.11006  -0.10938  -0.10874
 Alpha virt. eigenvalues --   -0.07968  -0.06501  -0.06330  -0.05464  -0.03646
 Alpha virt. eigenvalues --   -0.03588  -0.03444  -0.03387  -0.02561  -0.02223
 Alpha virt. eigenvalues --   -0.01968  -0.01921  -0.01441  -0.00881  -0.00791
 Alpha virt. eigenvalues --   -0.00396  -0.00152  -0.00123  -0.00003   0.00170
 Alpha virt. eigenvalues --    0.00278   0.00481   0.00526   0.00888   0.00952
 Alpha virt. eigenvalues --    0.01237   0.01411   0.01436   0.02046   0.02189
 Alpha virt. eigenvalues --    0.02464   0.02549   0.02792   0.03188   0.03240
 Alpha virt. eigenvalues --    0.03525   0.03619   0.03772   0.03823   0.04142
 Alpha virt. eigenvalues --    0.04175   0.04651   0.04883   0.05204   0.05254
 Alpha virt. eigenvalues --    0.05419   0.05449   0.05483   0.05744   0.06054
 Alpha virt. eigenvalues --    0.06226   0.06451   0.06741   0.06780   0.07132
 Alpha virt. eigenvalues --    0.07397   0.07444   0.07670   0.07942   0.08187
 Alpha virt. eigenvalues --    0.08248   0.08580   0.08629   0.08915   0.08947
 Alpha virt. eigenvalues --    0.09139   0.09215   0.09964   0.09992   0.10331
 Alpha virt. eigenvalues --    0.10357   0.10497   0.10703   0.11114   0.11164
 Alpha virt. eigenvalues --    0.11284   0.11397   0.11661   0.11763   0.12042
 Alpha virt. eigenvalues --    0.12104   0.12726   0.12729   0.12940   0.12968
 Alpha virt. eigenvalues --    0.13114   0.13253   0.13290   0.13383   0.13601
 Alpha virt. eigenvalues --    0.13880   0.14023   0.14219   0.14418   0.14534
 Alpha virt. eigenvalues --    0.14573   0.14684   0.14781   0.15025   0.15383
 Alpha virt. eigenvalues --    0.15452   0.15703   0.15800   0.16016   0.16200
 Alpha virt. eigenvalues --    0.16270   0.16359   0.16537   0.16583   0.16854
 Alpha virt. eigenvalues --    0.16868   0.17083   0.17128   0.17274   0.17374
 Alpha virt. eigenvalues --    0.17504   0.17958   0.18106   0.18192   0.18335
 Alpha virt. eigenvalues --    0.18383   0.18423   0.18775   0.18778   0.19011
 Alpha virt. eigenvalues --    0.19084   0.19467   0.19567   0.19755   0.19831
 Alpha virt. eigenvalues --    0.19876   0.19950   0.20174   0.20275   0.20464
 Alpha virt. eigenvalues --    0.20507   0.20716   0.20764   0.20883   0.21097
 Alpha virt. eigenvalues --    0.21240   0.21331   0.21626   0.21738   0.21956
 Alpha virt. eigenvalues --    0.22040   0.22308   0.22440   0.22500   0.22647
 Alpha virt. eigenvalues --    0.22813   0.22972   0.23082   0.23173   0.23300
 Alpha virt. eigenvalues --    0.23335   0.23433   0.23650   0.23991   0.24013
 Alpha virt. eigenvalues --    0.24113   0.24256   0.24375   0.24520   0.24731
 Alpha virt. eigenvalues --    0.24922   0.24938   0.25120   0.25343   0.25435
 Alpha virt. eigenvalues --    0.25577   0.25641   0.25817   0.25896   0.25931
 Alpha virt. eigenvalues --    0.26258   0.26282   0.26327   0.26516   0.26704
 Alpha virt. eigenvalues --    0.26901   0.26993   0.27002   0.27377   0.27379
 Alpha virt. eigenvalues --    0.27575   0.27612   0.27631   0.28002   0.28094
 Alpha virt. eigenvalues --    0.28194   0.28315   0.28341   0.28566   0.28890
 Alpha virt. eigenvalues --    0.29005   0.29255   0.29425   0.29749   0.29825
 Alpha virt. eigenvalues --    0.29861   0.29928   0.30241   0.30400   0.30555
 Alpha virt. eigenvalues --    0.30633   0.30727   0.30987   0.31238   0.31291
 Alpha virt. eigenvalues --    0.31492   0.31662   0.31749   0.32130   0.32163
 Alpha virt. eigenvalues --    0.32421   0.32431   0.32621   0.32644   0.32943
 Alpha virt. eigenvalues --    0.33063   0.33080   0.33746   0.33839   0.33901
 Alpha virt. eigenvalues --    0.34184   0.34645   0.34895   0.34984   0.35155
 Alpha virt. eigenvalues --    0.35246   0.35482   0.35997   0.36259   0.36294
 Alpha virt. eigenvalues --    0.36428   0.36844   0.36881   0.37262   0.37322
 Alpha virt. eigenvalues --    0.37580   0.38038   0.38375   0.38441   0.38888
 Alpha virt. eigenvalues --    0.39186   0.39267   0.39323   0.39710   0.39974
 Alpha virt. eigenvalues --    0.40139   0.40260   0.40781   0.41272   0.41322
 Alpha virt. eigenvalues --    0.41904   0.42191   0.42196   0.42432   0.42847
 Alpha virt. eigenvalues --    0.42914   0.43348   0.43519   0.43563   0.44423
 Alpha virt. eigenvalues --    0.44651   0.44988   0.45494   0.45900   0.46292
 Alpha virt. eigenvalues --    0.46413   0.46940   0.47170   0.47779   0.47942
 Alpha virt. eigenvalues --    0.48022   0.48228   0.48936   0.49168   0.49425
 Alpha virt. eigenvalues --    0.49547   0.49810   0.50007   0.50033   0.50323
 Alpha virt. eigenvalues --    0.51085   0.51210   0.51329   0.51965   0.52253
 Alpha virt. eigenvalues --    0.52788   0.53277   0.54098   0.54229   0.55026
 Alpha virt. eigenvalues --    0.56880   0.57868   0.59078   0.60818   0.61275
 Alpha virt. eigenvalues --    0.62272   0.63749   0.64034   0.64913   0.65195
 Alpha virt. eigenvalues --    0.65694   0.66118   0.66646   0.66931   0.67126
 Alpha virt. eigenvalues --    0.67532   0.67939   0.68261   0.69023   0.69262
 Alpha virt. eigenvalues --    0.69545   0.69641   0.70305   0.70597   0.70652
 Alpha virt. eigenvalues --    0.71078   0.71184   0.71554   0.71796   0.71962
 Alpha virt. eigenvalues --    0.72007   0.72609   0.72797   0.72905   0.73314
 Alpha virt. eigenvalues --    0.73574   0.73885   0.73916   0.74122   0.74280
 Alpha virt. eigenvalues --    0.74971   0.75159   0.75446   0.75658   0.75773
 Alpha virt. eigenvalues --    0.75944   0.76363   0.76503   0.76603   0.77223
[...]
 0.00001205,0.00000464,0.00000209,-0.00001904,0.00001955,0.00000454,0.0
 0000686,0.00002485,-0.00001813,-0.00001402,-0.00001159,0.00000364,0.00
 001976,-0.00002191,-0.00000301,-0.00000580,0.00002765,-0.00000058,0.00
 000766,-0.00002188,-0.00001293,0.00001990,0.00003520,0.00000074,-0.000
 02988,0.00000315,0.00000353,0.00000830,0.00000490,0.00000354,-0.000004
 46,-0.00000358,-0.00000420,-0.00000357,0.00000819,0.00000519,0.0000041
 2,0.00000064,-0.00000235,0.00000164,-0.00000704,-0.00000159,0.00000979
 ,0.00000551,0.00000377,-0.00000405,-0.00000623,-0.00000415,-0.00005766
 ,-0.00004202,-0.00000214,0.00003314,0.00014940,0.00001871,0.00006996,-
 0.00013345,-0.00010388,-0.00007369,0.00027825,-0.00008854,-0.00017567,
 0.00018541,-0.00345866,-0.00044629,-0.00129225,0.00058093,0.00029856,0
 .00018896,-0.00014461,0.00035878,0.00015268,-0.00014386,-0.00032337,0.
 00003808,0.00002984,0.00010775,-0.00008306,0.00001968,0.00014178,0.000
 07630,-0.00007134,-0.00097189,0.00051976,0.00003706,-0.00165131,-0.000
 48275,-0.00055400,0.00208526,-0.00053133,0.00308457,0.00414847,-0.0060
 1790,-0.03647470,-0.00071003,0.00078555,0.00472964,-0.00070159,-0.0001
 6889,0.00699085,-0.00029344,-0.00026889,-0.00076956,-0.00028199,-0.000
 85668,0.00602853,0.00023259,-0.00006791,0.00048773,0.00005516,-0.00003
 065,0.00003939,0.00000689,0.00000212,0.00000875,-0.00006536,0.00001091
 ,-0.00000099,-0.00000444,0.00000624,-0.00000058,0.00000143,-0.00000061
 ,0.00012589,-0.00000162,-0.00000243,0.00000463,0.00000105,-0.00000992,
 -0.00000526,-0.00000122,0.00000020,-0.00000169,0.00000129,-0.00000016,
 0.00000033,-0.00000093,-0.00000089,0.00000155,0.00000414,-0.00000306,0
 .00000012,0.00000089,-0.00000363,0.00000453,-0.00001225,0.00000765,0.0
 0025516,0.00001159,0.00001588,0.00002255,-0.00198924,0.00716218,0.0247
 0131,-0.00000590,-0.00000783,0.00000157,0.00000910,0.00003135,-0.00000
 475,-0.00000028,-0.00001781,0.00000170,0.00000074,-0.00001140,-0.00000
 170,-0.00000931,0.00000828,-0.00000356,-0.00003555,-0.00000995,0.00000
 567,0.00010907,-0.00002582,-0.00002364,0.00076071,0.00075517,0.0000465
 9,-0.00021019,0.00030895,0.00001232,-0.00015511,-0.00025151,-0.0000114
 2,0.00010755,0.00013701,0.00000245,0.00000292,-0.00003645,0.00000136,0
 .00005543,0.00002166,-0.00000360,-0.00001950,0.00002060,0.00000248,0.0
 0000721,-0.00000245,0.00000607,0.00000288,-0.00000227,-0.00000457,-0.0
 0001032,0.00000306,-0.00000137,0.00000264,0.00000048,0.00000084,0.0000
 0543,-0.00000430,-0.00000072,0.00000805,-0.00000226,0.00000059,-0.0000
 0089,-0.00000320,-0.00000188,-0.00003218,-0.00004364,0.00000243,0.0000
 3368,0.00003502,-0.00000254,-0.00004798,0.00001370,0.00000124,0.000011
 08,-0.00004941,0.00000221,-0.00001949,0.00003649,-0.00000263,-0.000004
 03,-0.00005359,0.00000103,0.00003343,0.00000513,-0.00000067,-0.0000061
 3,-0.00001105,-0.00000244,-0.00000665,0.00000018,0.00000115,0.00001132
 ,0.00001313,0.00000356,-0.00000883,-0.00000138,-0.00000044,-0.00000157
 ,-0.00000713,-0.00000170,-0.00000645,-0.00000324,-0.00000140,-0.000007
 03,0.00000454,0.00000238,0.00004857,0.00003398,-0.00000199,0.00002680,
 -0.00018061,0.00000695,-0.00007735,0.00031326,-0.00003834,-0.00047827,
 -0.00021356,-0.00000206,0.00054938,-0.00122508,-0.00005942,0.00016460,
 -0.00012126,0.00001382,-0.00006637,0.00002405,-0.00000341,-0.00001882,
 0.00001030,0.00001243,0.00005554,-0.00000405,-0.00000977,-0.00002751,0
 .00001904,-0.00000375,-0.00001952,-0.00000431,0.00000783,-0.00000168,0
 .00001644,-0.00000045,0.00000151,0.00003811,0.00000865,-0.00525861,-0.
 00069026,-0.00053349,-0.00224085,-0.02918553,-0.00249696,-0.07042465,-
 0.06085257,-0.00571648,0.00839334,0.02329756,0.00196346,-0.00328492,0.
 00308138,-0.00017711,-0.00101533,0.00030782,0.00001796,0.00015067,-0.0
 0000340,0.00004776,-0.00013667,0.00003558,-0.00000275,0.00000566,-0.00
 000215,0.00000180,-0.00000448,-0.00001375,-0.00000251,-0.00000326,-0.0
 0000185,0.00000003,0.00003016,0.00010557,0.00000271,0.00000712,-0.0000
 0576,-0.00000079,0.00000030,-0.00000155,0.00000032,0.00000089,0.000000
 18,-0.00000092,-0.00000077,-0.00000232,-0.00000002,0.00000096,0.000000
 05,-0.00000041,0.00000040,-0.00000053,-0.00000037,0.00000984,0.0000077
 9,0.00000006,-0.00002491,-0.00014069,0.00001894,-0.00000595,-0.0000014
 7,-0.00000356,0.00123402,0.00029006,0.00019978,0.07087660,0.00004788,0
 .00001513,-0.00000260,-0.00006213,-0.00008082,0.00001810,0.00001454,0.
 00004737,-0.00001200,-0.00001080,0.00000196,-0.00000464,0.00002102,-0.
 00003307,0.00001749,0.00013349,-0.00001469,0.00001456,-0.00020513,0.00
 000749,-0.00002628,-0.00081541,-0.00050087,-0.00005764,0.00037039,-0.0
 0024833,0.00004056,0.00009402,0.00004118,-0.00000818,-0.00002155,-0.00
 006076,-0.00001605,-0.00005158,0.00003493,0.00000694,0.00005970,-0.000
 06651,-0.00001423,-0.00009842,0.00008494,0.00001668,0.00003924,-0.0000
 0560,0.00002423,0.00001694,-0.00001050,-0.00001765,-0.00005581,0.00000
 625,-0.00001330,0.00001846,0.00000681,0.00000906,0.00002535,-0.0000187
 8,-0.00000256,0.00002879,-0.00001412,0.00000145,0.00000514,-0.00002468
 ,-0.00001234,0.00001074,-0.00003121,0.00000390,-0.00000750,-0.00001910
 ,0.00000118,0.00001898,0.00001312,0.00000244,-0.00001569,0.00000766,-0
 .00000353,-0.00001716,-0.00005179,0.00000345,-0.00010427,-0.00000604,0
 .00000490,0.00013719,0.00002042,-0.00000716,-0.00001887,-0.00004291,-0
 .00000914,-0.00002798,0.00000465,0.00000752,0.00004644,0.00005086,0.00
 001147,-0.00003631,-0.00000627,-0.00000054,-0.00000659,-0.00002612,-0.
 00000641,-0.00003332,-0.00001678,-0.00000842,-0.00002291,0.00002218,0.
 00001187,0.00005637,0.00000083,0.00000118,-0.00003522,0.00002169,-0.00
 000835,-0.00005431,-0.00005409,-0.00001257,-0.00026020,0.00001864,0.00
 002200,0.00031766,-0.00028990,-0.00000575,0.00011498,-0.00008944,-0.00
 001798,-0.00007475,0.00002406,0.00000835,-0.00002800,0.00000270,0.0000
 1768,0.00006637,-0.00000661,-0.00001123,-0.00003132,0.00002182,-0.0000
 0416,-0.00002499,-0.00000716,0.00001090,0.00001761,-0.00000353,-0.0000
 0818,-0.00006558,0.00002679,-0.00002216,-0.00098668,0.00156700,-0.0005
 0496,0.00089828,-0.00404264,-0.00048203,-0.06098214,-0.32514120,-0.024
 21884,-0.00664003,-0.01485125,-0.00158450,0.00330127,-0.00038070,-0.00
 050950,0.00033298,0.00033327,0.00006432,-0.00001446,0.00007134,0.00006
 984,0.00004337,0.00001212,0.00001121,-0.00000019,0.00000056,-0.0000090
 4,0.00011583,0.00000265,-0.00004450,0.00000110,0.00000252,0.00000114,-
 0.00003868,-0.00009245,0.00000407,0.00000077,0.00001238,0.00000122,0.0
 0000078,-0.00000136,0.00000271,0.00000200,-0.00000070,-0.00000091,-0.0
 0000273,-0.00000978,0.00000022,0.00000191,0.00000174,-0.00000216,0.000
 00061,-0.00000135,-0.00000143,0.00000136,0.00001107,0.00000062,0.00000
 083,-0.00004347,0.00000296,-0.00000428,-0.00000049,-0.00000122,0.00012
 942,0.00052922,0.00036709,0.06477284,0.34242715,0.00000750,0.00000456,
 -0.00000036,-0.00001003,-0.00001555,0.00000975,0.00000240,0.00001174,-
 0.00000714,-0.00001631,-0.00004391,-0.00004509,0.00003344,0.00000748,-
 0.00000145,-0.00001972,-0.00001520,-0.00001413,0.00006569,0.00003838,0
 .00010847,-0.00009898,-0.00008538,0.00027474,0.00006570,0.00003194,-0.
 00048861,-0.00005269,0.00002157,0.00015310,-0.00000373,-0.00001787,0.0
 0004544,-0.00000417,0.00001269,0.00000157,0.00000188,-0.00001332,0.000
 00683,-0.00000773,0.00000787,0.00000208,0.00000249,-0.00000069,0.00000
 103,0.00000046,-0.00000108,-0.00000154,-0.00000245,0.00000274,0.000001
 24,0.00000006,-0.00000081,-0.00000072,0.00000208,-0.00000217,-0.000000
 83,0.00000394,-0.00000105,0.00000063,-0.00000142,-0.00000094,-0.000000
 94,0.00000772,0.00000192,0.00000072,-0.00000335,-0.00000657,-0.0000043
 4,0.00000871,-0.00000028,-0.00000095,-0.00000510,0.00000888,-0.0000050
 5,-0.00000242,-0.00001077,0.00000195,-0.00001117,0.00000607,0.00000806
 ,0.00000982,0.00000271,0.00000009,-0.00000020,-0.00000412,-0.00000051,
 -0.00000366,-0.00000009,-0.00000003,0.00000413,0.00000645,0.00000220,-
 0.00000316,-0.00000058,-0.00000043,-0.00000029,-0.00000386,-0.00000117
 ,-0.00000209,-0.00000052,-0.00000017,-0.00000216,0.00000130,0.00000036
 ,0.00000074,-0.00000254,0.00000251,-0.00000191,0.00002148,0.00004111,0
 .00007008,-0.00004927,0.00015719,-0.00002280,0.00010427,-0.00048539,-0
 .00007915,-0.00016906,0.00029597,-0.00004484,0.00003785,0.00008632,0.0
 0001189,-0.00003462,-0.00000023,-0.00003144,0.00003510,-0.00000942,0.0
 0004053,-0.00000452,0.00000180,-0.00001548,0.00001346,-0.00000530,-0.0
 0001135,-0.00000672,0.00000389,-0.00002065,-0.00002806,0.00000711,-0.0
 0008914,-0.00003448,-0.00002473,-0.00047612,-0.00006284,0.00706603,-0.
 00059074,-0.00186390,0.00362756,-0.00543721,-0.02414105,-0.03998584,-0
 .00031991,-0.00048479,0.00369536,-0.00004810,-0.00040706,0.00705397,0.
 00015107,0.00020675,-0.00049343,-0.00000300,-0.00014354,-0.00097000,0.
 00001384,-0.00000264,0.00000682,0.00000245,0.00000502,-0.00000125,0.00
 011166,-0.00005677,0.00008977,-0.00000344,0.00000055,0.00000764,0.0000
 0172,-0.00000552,-0.00004254,-0.00000156,0.00000020,-0.00001071,0.0000
 0014,-0.00000130,-0.00000001,0.00000002,0.00000027,0.00000003,0.000000
 04,-0.00000053,0.00000291,0.00000003,0.00000025,-0.00000001,0.00000071
 ,-0.00000051,0.00000006,-0.00000118,-0.00000027,-0.00001188,-0.0000041
 9,0.00000025,-0.00003883,-0.00000024,-0.00000051,-0.00000279,0.0003435
 7,0.00030444,-0.00402672,0.00658003,0.02648671,0.02801528,0.00022712,0
 .00002502,0.00000690,-0.00023805,-0.00002778,0.00000198,0.00020786,0.0
 0004129,-0.00001854,-0.00175362,0.00057959,-0.00017689,-0.00016436,-0.
 00051484,0.00009461,0.00060312,-0.00079517,0.00033433,0.00125751,0.002
 59378,-0.00004254,-0.00036912,0.00019173,0.00000079,-0.00028397,-0.000
 04801,-0.00002733,0.00005499,0.00007853,-0.00000439,-0.00008862,-0.000
 04916,-0.00002460,0.00000823,0.00000481,0.00000723,-0.00004698,-0.0000
 0004,-0.00000169,0.00001930,-0.00002160,0.00000360,-0.00000618,0.00000
 504,-0.00000372,0.00000258,0.00000005,-0.00000393,0.00000715,-0.000004
 23,0.00000430,-0.00000116,0.00000067,0.00000048,-0.00000519,0.00000299
 ,-0.00000081,-0.00000796,0.00000122,0.00000150,0.00000122,-0.00000277,
 -0.00000138,0.00001437,0.00002410,0.00000297,-0.00001844,-0.00002008,-
 0.00000082,0.00002345,-0.00000581,0.00000522,-0.00000006,0.00002592,-0
 .00000257,0.00001547,-0.00001725,0.00000674,0.00001196,0.00003336,-0.0
 0000488,-0.00001953,-0.00000632,0.00000504,0.00000215,0.00000728,0.000
 00093,0.00000641,-0.00000103,0.00000116,-0.00000334,-0.00000655,-0.000
 00673,0.00000234,-0.00000075,0.00000178,-0.00000061,0.00000565,0.00000
 256,0.00000187,0.00000156,0.00000048,0.00000432,-0.00000373,-0.0000019
 6,-0.00003879,-0.00003003,-0.00001260,-0.00002873,0.00012318,-0.000022
 39,0.00009294,-0.00014998,0.00011088,0.00006288,0.00007016,-0.00001286
 ,-0.00017150,-0.00004541,-0.00003270,0.00004416,0.00007315,-0.00001576
 ,-0.00000621,-0.00001187,0.00000727,-0.00002655,-0.00000538,0.00000440
 ,0.00003493,0.00000330,-0.00000021,-0.00001124,0.00000617,-0.00000311,
 -0.00001245,-0.00000726,0.00000428,0.00003529,-0.00002599,-0.00000105,
 -0.00008528,-0.00001131,-0.00002423,0.00050134,0.00051956,0.00007702,-
 0.00100813,0.00289095,0.00025584,-0.01383740,-0.00755789,-0.00097217,-
 0.31902246,-0.08968808,-0.01431142,-0.00038052,-0.00023690,0.00004300,
 0.00147098,0.00011730,-0.00023468,0.00003033,0.00010855,-0.00005246,0.
 00006832,-0.00004386,0.00003665,-0.00000826,-0.00000011,-0.00002432,-0
 .00678251,0.00286055,0.00097866,-0.00001025,-0.00001170,-0.00001464,0.
 00002597,0.00001065,0.00004048,-0.00000447,0.00000632,0.00000009,-0.00
 000028,0.00000419,0.00000059,-0.00000078,-0.00000216,0.00000111,-0.000
 00003,0.00000162,-0.00000103,-0.00000031,-0.00000075,0.00000047,-0.000
 00064,0.00000024,-0.00000006,-0.00000224,-0.00000284,0.00000033,-0.000
 01290,-0.00000133,0.00000563,-0.00000083,-0.00000284,0.00000173,-0.000
 52285,-0.00039848,-0.00002093,0.00095969,-0.00040966,-0.00009127,0.339
 18453,-0.00030570,-0.00008563,0.00000731,0.00035633,0.00024006,-0.0000
 3562,-0.00020488,-0.00018263,0.00005767,0.00138310,0.00041189,0.000243
 55,-0.00026083,0.00049223,-0.00024054,-0.00055832,0.00074126,-0.000310
 28,0.00044152,-0.00369352,0.00027461,-0.00025667,0.00151174,0.00024550
 ,0.00003613,-0.00014024,0.00006369,-0.00000990,0.00006154,-0.00001492,
 0.00014465,0.00007451,-0.00002017,0.00000099,-0.00005474,0.00000849,-0
 .00000147,0.00002289,-0.00000338,0.00001277,-0.00001680,0.00000269,-0.
 00000425,0.00000570,-0.00000317,0.00000386,-0.00000064,-0.00000381,0.0
 0000336,-0.00000873,0.00000110,0.00000081,0.00000366,0.00000113,-0.000
 00455,0.00000547,0.00000054,-0.00000732,0.00000115,0.00000135,0.000002
 34,-0.00000072,-0.00000010,-0.00002416,-0.00000814,0.00000545,0.000013
 30,0.00001980,-0.00000435,-0.00003141,-0.00000185,0.00000559,0.0000157
 3,-0.00002968,0.00000052,0.00000205,0.00003357,0.00000424,0.00002341,-
 0.00002808,-0.00000377,-0.00002308,-0.00001117,-0.00000042,-0.00000499
 ,0.00000858,0.00000019,0.00001010,-0.00000439,0.00000143,-0.00000745,-
 0.00000958,-0.00000775,0.00000541,-0.00000040,0.00000150,-0.00000025,0
 .00000700,0.00000320,0.00000749,0.00000489,0.00000168,0.00000192,-0.00
 000688,-0.00000347,0.00001425,-0.00003770,0.00002188,-0.00014042,-0.00
 007808,-0.00001085,0.00000867,-0.00033028,0.00000689,0.00009720,-0.000
 22597,-0.00001476,0.00010162,0.00028719,0.00007879,-0.00002700,-0.0001
 2063,0.00003573,-0.00001755,0.00001790,0.00000109,0.00001998,0.0000047
 5,-0.00002567,-0.00000092,0.00001005,-0.00000343,-0.00000196,-0.000000
 39,-0.00000064,0.00000062,-0.00000090,0.00000066,-0.00006046,0.0000435
 3,0.00001354,0.00010974,0.00001932,0.00002640,0.00019944,-0.00099324,-
 0.00003762,0.00335181,-0.00247748,-0.00056000,0.02153100,0.01006991,0.
 00088503,-0.08635477,-0.08558962,-0.00502938,-0.02906138,-0.00417856,-
 0.00146455,0.00052598,-0.00531387,-0.00052944,-0.00163114,0.00039588,-
 0.00005607,-0.00008118,0.00000402,0.00001650,0.00000631,-0.00000150,-0
 .00001614,0.00045686,-0.00067876,0.00000346,0.00004776,0.00006498,-0.0
 0007091,0.00001006,-0.00000025,-0.00001795,0.00000452,-0.00000689,-0.0
 0000192,-0.00000012,0.00000298,0.00000055,-0.00000058,-0.00000287,0.00
 000110,-0.00000090,0.00000179,-0.00000105,0.00000048,-0.00000138,0.000
 00086,-0.00000128,0.00000050,0.00000037,0.00000514,0.00000637,-0.00000
 018,-0.00001477,0.00001326,-0.00000930,0.00000143,-0.00000195,0.000003
 25,0.00094436,0.00033961,0.00007098,-0.00055332,0.00084258,0.00034233,
 0.08975046,0.08855355,-0.00002889,-0.00000704,-0.00000022,0.00003538,-
 0.00007503,0.00000153,-0.00008060,0.00000916,-0.00000420,0.00046129,0.
 00025690,-0.00002742,-0.00011918,0.00008740,-0.00001199,-0.00002319,0.
 00029050,-0.00001101,-0.00018610,-0.00068784,0.00020213,0.00021603,0.0
 0024154,-0.00334443,0.00011955,0.00010793,-0.00015668,-0.00007717,-0.0
 0002093,-0.00012680,0.00001818,0.00006317,0.00000472,0.00002248,-0.000
 03473,-0.00000024,-0.00002234,0.00002248,-0.00000165,0.00003300,-0.000
 02074,0.00000842,-0.00001150,-0.00000257,-0.00001065,-0.00000640,0.000
 00329,0.00000170,0.00002087,0.00000762,0.00001237,-0.00001001,-0.00000
 736,-0.00000717,-0.00000597,0.00000268,-0.00000159,-0.00000333,0.00000
 348,0.00000203,-0.00000711,0.00001015,0.00000161,-0.00000555,0.0000096
 3,-0.00000758,0.00000009,0.00000453,-0.00000479,-0.00000586,-0.0000109
 5,0.00000225,0.00000471,0.00000097,0.00000161,0.00000749,0.00000778,-0
 .00001140,0.00003034,0.00000532,0.00000451,-0.00003784,-0.00000362,0.0
 0003981,0.00000856,0.00000815,0.00000239,0.00000280,-0.00000055,-0.000
 00339,-0.00000822,-0.00000273,-0.00000543,0.00000736,0.00000009,0.0000
 0050,0.00000102,0.00000170,0.00000163,0.00000812,0.00000351,0.00000169
 ,0.00000399,-0.00000664,-0.00000503,-0.00003125,-0.00002169,-0.0001745
 2,0.00000581,0.00002373,0.00000364,0.00007394,-0.00007582,-0.00014470,
 -0.00002581,0.00001464,0.00016202,0.00000192,0.00005529,-0.00101767,-0
 .00002198,-0.00005678,0.00000407,-0.00002193,0.00002538,0.00000929,0.0
 0000773,-0.00001529,0.00000292,-0.00000581,-0.00000591,0.00000498,-0.0
 0000182,-0.00000086,-0.00000039,0.00000331,0.00000819,-0.00000473,-0.0
 0001360,0.00001687,-0.00000313,0.00007016,-0.00004006,0.00001382,0.000
 16209,-0.00025438,-0.00081224,0.00004797,-0.00037942,0.00715287,0.0001
 8588,-0.00009235,0.00474055,-0.01262666,-0.00486609,-0.03848037,-0.002
 00855,0.00000778,0.00344490,-0.00037110,-0.00064291,0.00611898,-0.0002
 4119,0.00002291,0.00038954,-0.00001417,-0.00002351,0.00007144,0.000002
 69,0.00000133,-0.00000767,0.00018726,-0.00049953,0.00015341,0.00001337
 ,0.00004840,0.00001398,-0.00000311,-0.00000963,0.00030192,-0.00000333,
 -0.00000299,0.00000421,0.00000034,-0.00000362,-0.00000225,-0.00000107,
 -0.00000047,0.00000094,-0.00000002,0.00000181,-0.00000022,0.00000021,-
 0.00000067,-0.00000015,0.00000114,-0.00000107,0.00000059,0.00000235,0.
 00000072,0.00000514,-0.00000634,0.00000580,0.00011864,-0.00000089,0.00
 000455,0.00000212,0.00000540,0.00002348,-0.00014193,0.00014544,0.00040
 415,-0.00409705,0.01411959,0.00606077,0.02561984\\-0.00001405,0.000013
 70,-0.00000119,0.00000306,0.00001706,0.00000003,-0.00000944,0.00001067
 ,0.00000062,-0.00000242,-0.00000358,0.00000194,-0.00001223,0.00001496,
 0.00000116,0.00000013,0.00000577,-0.00000265,-0.00000012,0.00000384,0.
 00000629,-0.00000862,-0.00000145,-0.00000158,0.00000425,0.00001321,-0.
 00000040,-0.00001172,0.00000009,0.00000704,0.00000188,0.00000562,-0.00
 000736,-0.00000063,-0.00000600,0.00000230,0.00000752,0.00001345,-0.000
 00193,0.00000673,0.00000371,0.00000161,0.00001146,0.00000831,0.0000022
 8,-0.00000431,0.00000647,-0.00000297,0.00000837,0.00000606,-0.00000204
 ,0.00000910,0.00001174,0.00000172,0.00001028,0.00001134,0.00000095,0.0
 0001730,0.00000546,-0.00000195,0.00000437,0.00000131,-0.00000112,0.000
 00435,0.,0.00000183,0.00000833,-0.00000578,-0.00000126,0.00000818,0.00
 000321,0.00000087,0.00000980,-0.00000293,-0.00000111,0.00000727,-0.000
 01280,0.00000237,0.00000046,0.00000033,-0.00000181,0.00000456,-0.00000
 460,0.00000388,0.00000563,-0.00000721,-0.00000213,-0.00000031,-0.00000
 503,-0.00000047,0.00000034,-0.00002097,-0.00000156,0.00001312,-0.00001
 383,-0.00000095,0.00000771,-0.00000408,0.00000254,0.00000194,-0.000010
 42,0.00000187,0.00000733,-0.00000769,-0.00000239,-0.00000169,-0.000008
 17,0.00000198,0.00000068,-0.00000265,-0.00000555,0.00000503,-0.0000034
 6,0.00000580,-0.00000514,-0.00000464,-0.00000085,0.00000041,0.00000423
 ,-0.00000047,-0.00001012,-0.00000760,0.00000602,-0.00000767,-0.0000036
 2,-0.00000212,0.00000152,-0.00001059,-0.00000044,-0.00001623,-0.000010
 32,0.00000194,-0.00000853,-0.00001165,0.00000065,-0.00000453,-0.000007
 29,-0.00000177,-0.00001335,-0.00000413,-0.00000152,-0.00000411,-0.0000
 0583,-0.00000353,-0.00001305,-0.00000275,-0.00000257,-0.00000675,0.000
 00170,0.00000124,-0.00001302,0.00000496,0.00000035,0.00000221,0.000011
 85,0.00000111,-0.00000580,-0.00000582,-0.00000154,0.00000143,-0.000000
 78,0.00000471,0.00000057,0.00000316,-0.00000844,0.00000652,-0.00000239
 ,0.00000723,0.00000244,0.00000355,-0.00000313,-0.00000519,0.00001558,-
 0.00000567,-0.00000122,0.00001100,-0.00000019,0.00000064,0.00000507,-0
 .00000009,0.00000458,0.00000513,0.00000006,0.00000962,0.00000819,0.000
 00223,0.00000719,0.00000341,0.00000003,0.00000960,-0.00000244,0.000000
 17,0.00000772,-0.00000555,-0.00000003,0.00000395,-0.00001376,-0.000000
 78,-0.00000113,-0.00000436,-0.00000021,-0.00000528,-0.00000489,-0.0000
 0006,-0.00001126,-0.00000574,0.00000184,-0.00000782,-0.00000167,-0.000
 00025,-0.00000929,-0.00000038,-0.00000016,-0.00001253,0.00000272,-0.00
 000047\\\@


 THERE IS NOTHING NOBLE IN BEING SUPERIOR TO SOME OTHER MAN.
 TRUE NOBILITY IS BEING SUPERIOR TO YOUR FORMER SELF.

                                                   -- HINDU PROVERB
 Job cpu time:      13 days 19 hours 16 minutes 46.9 seconds.
 Elapsed time:       0 days 20 hours 43 minutes 57.5 seconds.
 File lengths (MBytes):  RWF=  35664 Int=      0 D2E=      0 Chk=    128 Scr=     32
 Normal termination of Gaussian 16 at Thu Nov  1 06:42:18 2018.
